# vtk DataFile Version 3.0
vtk output
ASCII
DATASET STRUCTURED_POINTS
DIMENSIONS 87 21 1
ORIGIN 0.0229885 0.0238095 0
SPACING 0.045977 0.047619 1
POINT_DATA 1827
SCALARS pressure double
LOOKUP_TABLE default
50.9011
49.9271
49.7546
49.6543
49.5939
49.5567
49.5321
49.5139
49.4989
49.4856
49.4733
49.4615
49.45
49.4389
49.4279
49.4172
49.4065
49.396
49.3857
49.3754
49.3653
49.3553
49.3453
49.3355
49.3258
49.3162
49.3067
49.2973
49.288
49.2788
49.2697
49.2607
49.2518
49.2429
49.2342
49.2255
49.2169
49.2084
49.1999
49.1916
49.1833
49.1751
49.1669
49.1588
49.1508
49.1428
49.1349
49.127
49.1192
49.1115
49.1038
49.0961
49.0885
49.081
49.0735
49.066
49.0586
49.0512
49.0438
49.0365
49.0292
49.0219
49.0147
49.0074
49.0002
48.993
48.9857
48.9784
48.9711
48.9637
48.9562
48.9485
48.9406
48.9324
48.9237
48.9145
48.9045
48.8934
48.8807
48.8658
48.8478
48.825
48.7952
48.7529
48.6975
48.5814
48.6074
50.7641
49.8598
49.7486
49.669
49.6124
49.5731
49.545
49.5238
49.5065
49.4915
49.4779
49.4652
49.4531
49.4415
49.4301
49.419
49.4082
49.3975
49.3869
49.3766
49.3663
49.3562
49.3462
49.3363
49.3265
49.3169
49.3073
49.2979
49.2885
49.2793
49.2702
49.2611
49.2522
49.2433
49.2345
49.2258
49.2172
49.2087
49.2002
49.1919
49.1836
49.1753
49.1672
49.1591
49.151
49.143
49.1351
49.1272
49.1194
49.1117
49.104
49.0963
49.0887
49.0811
49.0736
49.0661
49.0587
49.0513
49.0439
49.0366
49.0293
49.022
49.0148
49.0075
49.0003
48.993
48.9858
48.9785
48.9711
48.9637
48.9562
48.9484
48.9405
48.9322
48.9235
48.9142
48.9041
48.8929
48.8801
48.8652
48.8471
48.8245
48.7955
48.7542
48.7014
48.5844
48.7715
50.6915
49.8132
49.7372
49.6776
49.6281
49.5893
49.5593
49.5356
49.516
49.4991
49.484
49.4702
49.4572
49.4449
49.433
49.4214
49.4102
49.3992
49.3885
49.3779
49.3675
49.3572
49.3471
49.3371
49.3272
49.3175
49.3079
49.2984
49.289
49.2798
49.2706
49.2615
49.2525
49.2437
49.2349
49.2262
49.2175
49.209
49.2005
49.1921
49.1838
49.1756
49.1674
49.1593
49.1512
49.1432
49.1353
49.1274
49.1196
49.1118
49.1041
49.0965
49.0888
49.0813
49.0738
49.0663
49.0588
49.0514
49.0441
49.0367
49.0294
49.0222
49.0149
49.0077
49.0005
48.9932
48.986
48.9787
48.9714
48.9641
48.9566
48.949
48.9412
48.9332
48.9248
48.916
48.9064
48.8961
48.8845
48.8714
48.8561
48.8377
48.8156
48.7857
48.7521
48.6961
48.9928
50.6405
49.7794
49.7232
49.679
49.6383
49.603
49.5734
49.5485
49.5272
49.5086
49.492
49.4769
49.4628
49.4495
49.4369
49.4248
49.413
49.4016
49.3905
49.3796
49.369
49.3585
49.3482
49.3381
49.3282
49.3183
49.3086
49.2991
49.2896
49.2803
49.2711
49.262
49.253
49.244
49.2352
49.2265
49.2178
49.2093
49.2008
49.1924
49.1841
49.1758
49.1676
49.1595
49.1514
49.1434
49.1355
49.1276
49.1198
49.112
49.1043
49.0966
49.089
49.0814
49.0739
49.0664
49.059
49.0516
49.0442
49.0369
49.0296
49.0223
49.0151
49.0079
49.0007
48.9936
48.9864
48.9793
48.9721
48.9649
48.9577
48.9504
48.9431
48.9357
48.9281
48.9203
48.9122
48.9038
48.895
48.8856
48.8758
48.865
48.8542
48.8416
48.8323
48.8215
49.1878
50.6026
49.7532
49.7088
49.6753
49.6424
49.6118
49.5842
49.5597
49.5379
49.5184
49.5007
49.4844
49.4693
49.4552
49.4417
49.4289
49.4166
49.4046
49.3931
49.3819
49.3709
49.3602
49.3497
49.3394
49.3293
49.3193
49.3095
49.2999
49.2904
49.281
49.2717
49.2625
49.2535
49.2445
49.2357
49.2269
49.2182
49.2096
49.2011
49.1927
49.1843
49.1761
49.1678
49.1597
49.1516
49.1436
49.1357
49.1278
49.1199
49.1122
49.1044
49.0968
49.0892
49.0816
49.0741
49.0666
49.0591
49.0517
49.0444
49.0371
49.0298
49.0226
49.0154
49.0082
49.0011
48.9941
48.9871
48.9801
48.9731
48.9663
48.9595
48.9527
48.9461
48.9396
48.9332
48.9271
48.9213
48.9158
48.911
48.907
48.9044
48.9034
48.9056
48.9112
48.9248
48.9454
49.36
50.5744
49.7328
49.6958
49.6695
49.6426
49.6161
49.5911
49.5679
49.5465
49.5268
49.5085
49.4916
49.4758
49.4609
49.4467
49.4333
49.4204
49.408
49.396
49.3844
49.3731
49.3621
49.3514
49.3409
49.3306
49.3205
49.3106
49.3008
49.2912
49.2817
49.2724
49.2632
49.2541
49.245
49.2361
49.2273
49.2186
49.21
49.2015
49.193
49.1847
49.1764
49.1681
49.16
49.1519
49.1439
49.1359
49.128
49.1202
49.1124
49.1046
49.097
49.0893
49.0818
49.0742
49.0668
49.0593
49.0519
49.0446
49.0373
49.0301
49.0229
49.0157
49.0087
49.0017
48.9947
48.9879
48.9811
48.9745
48.968
48.9617
48.9557
48.95
48.9447
48.9399
48.9359
48.9328
48.9309
48.9308
48.933
48.9383
48.9476
48.9629
48.985
49.0178
49.061
49.5106
50.5536
49.7172
49.685
49.6636
49.6409
49.6178
49.5952
49.5734
49.5527
49.5332
49.5148
49.4976
49.4813
49.4659
49.4513
49.4373
49.424
49.4112
49.3988
49.3869
49.3753
49.3641
49.3531
49.3424
49.332
49.3217
49.3117
49.3018
49.2921
49.2825
49.2731
49.2638
49.2547
49.2456
49.2367
49.2278
49.2191
49.2104
49.2019
49.1934
49.185
49.1767
49.1684
49.1603
49.1522
49.1441
49.1362
49.1282
49.1204
49.1126
49.1049
49.0972
49.0895
49.082
49.0744
49.0669
49.0595
49.0521
49.0448
49.0376
49.0304
49.0232
49.0161
49.0091
49.0022
48.9955
48.9888
48.9823
48.976
48.97
48.9643
48.959
48.9543
48.9503
48.9472
48.9454
48.9452
48.9472
48.9519
48.9602
48.9732
48.9922
49.019
49.055
49.103
49.1627
49.6375
50.5387
49.7057
49.6767
49.6585
49.6387
49.6181
49.5973
49.5768
49.5569
49.5377
49.5195
49.5021
49.4856
49.4699
49.4549
49.4406
49.4269
49.4138
49.4012
49.389
49.3772
49.3658
49.3546
49.3438
49.3332
49.3228
49.3127
49.3027
49.2929
49.2833
49.2738
49.2645
49.2553
49.2462
49.2372
49.2283
49.2195
49.2109
49.2023
49.1938
49.1854
49.177
49.1687
49.1606
49.1524
49.1444
49.1364
49.1285
49.1206
49.1128
49.1051
49.0974
49.0897
49.0821
49.0746
49.0671
49.0597
49.0524
49.0451
49.0378
49.0306
49.0235
49.0165
49.0096
49.0028
48.9962
48.9897
48.9834
48.9775
48.9719
48.9667
48.9622
48.9584
48.9557
48.9543
48.9545
48.9571
48.9624
48.9715
48.9853
49.005
49.0321
49.0683
49.115
49.1744
49.2458
49.7383
50.5287
49.6977
49.6707
49.6546
49.6368
49.6179
49.5984
49.5788
49.5595
49.5407
49.5226
49.5052
49.4886
49.4727
49.4575
49.443
49.4291
49.4158
49.403
49.3906
49.3787
49.3671
49.3558
49.3449
49.3342
49.3237
49.3135
49.3034
49.2936
49.2839
49.2744
49.265
49.2557
49.2466
49.2376
49.2287
49.2199
49.2112
49.2026
49.1941
49.1856
49.1773
49.169
49.1608
49.1527
49.1446
49.1366
49.1287
49.1208
49.113
49.1052
49.0975
49.0899
49.0823
49.0748
49.0673
49.0599
49.0525
49.0452
49.038
49.0309
49.0238
49.0168
49.01
49.0033
48.9967
48.9904
48.9844
48.9787
48.9734
48.9687
48.9648
48.9618
48.9601
48.96
48.962
48.9667
48.9748
48.9873
49.0053
49.0302
49.0633
49.1064
49.1608
49.2279
49.3072
49.8115
50.5228
49.6931
49.6672
49.6522
49.6355
49.6175
49.5988
49.5798
49.5609
49.5424
49.5244
49.507
49.4903
49.4744
49.4591
49.4445
49.4304
49.417
49.4041
49.3916
49.3795
49.3679
49.3565
49.3455
49.3348
49.3243
49.314
49.3039
49.294
49.2843
49.2747
49.2653
49.256
49.2469
49.2379
49.2289
49.2201
49.2114
49.2028
49.1943
49.1858
49.1775
49.1692
49.161
49.1528
49.1447
49.1367
49.1288
49.1209
49.1131
49.1054
49.0977
49.09
49.0824
49.0749
49.0674
49.06
49.0527
49.0454
49.0382
49.031
49.024
49.017
49.0102
49.0036
48.9971
48.9909
48.985
48.9795
48.9745
48.9701
48.9665
48.9641
48.963
48.9638
48.9669
48.973
48.9829
48.9976
49.0183
49.0463
49.0832
49.1305
49.1893
49.2611
49.3449
49.856
50.5209
49.6915
49.666
49.6514
49.6351
49.6174
49.5989
49.5801
49.5614
49.5429
49.5249
49.5076
49.4909
49.4749
49.4596
49.4449
49.4309
49.4174
49.4044
49.3919
49.3799
49.3682
49.3568
49.3457
49.335
49.3244
49.3142
49.3041
49.2942
49.2844
49.2749
49.2654
49.2562
49.247
49.238
49.229
49.2202
49.2115
49.2029
49.1943
49.1859
49.1775
49.1692
49.161
49.1529
49.1448
49.1368
49.1289
49.121
49.1132
49.1054
49.0977
49.09
49.0825
49.0749
49.0675
49.06
49.0527
49.0454
49.0382
49.0311
49.024
49.0171
49.0103
49.0037
48.9973
48.9911
48.9852
48.9797
48.9748
48.9705
48.9671
48.9649
48.9641
48.9651
48.9686
48.9752
48.9857
49.0011
49.0227
49.0519
49.09
49.1387
49.1991
49.2725
49.3578
49.8714
50.5226
49.693
49.6671
49.6522
49.6355
49.6175
49.5988
49.5799
49.561
49.5424
49.5244
49.507
49.4904
49.4744
49.4591
49.4445
49.4305
49.417
49.4041
49.3916
49.3796
49.3679
49.3566
49.3455
49.3348
49.3243
49.314
49.3039
49.294
49.2843
49.2747
49.2653
49.2561
49.2469
49.2379
49.229
49.2201
49.2114
49.2028
49.1943
49.1858
49.1775
49.1692
49.161
49.1528
49.1447
49.1367
49.1288
49.1209
49.1131
49.1053
49.0976
49.09
49.0824
49.0749
49.0674
49.06
49.0526
49.0454
49.0381
49.031
49.024
49.017
49.0102
49.0036
48.9971
48.9909
48.985
48.9795
48.9744
48.9701
48.9665
48.9641
48.963
48.9638
48.9669
48.973
48.9829
48.9976
49.0184
49.0464
49.0834
49.1307
49.1897
49.2616
49.3455
49.8577
50.5282
49.6977
49.6707
49.6546
49.6368
49.6179
49.5984
49.5788
49.5596
49.5408
49.5227
49.5053
49.4886
49.4728
49.4576
49.4431
49.4292
49.4159
49.403
49.3907
49.3787
49.3671
49.3559
49.3449
49.3342
49.3237
49.3135
49.3035
49.2936
49.2839
49.2744
49.265
49.2557
49.2466
49.2376
49.2287
49.2199
49.2112
49.2026
49.1941
49.1856
49.1773
49.169
49.1608
49.1527
49.1446
49.1366
49.1287
49.1208
49.113
49.1052
49.0975
49.0899
49.0823
49.0748
49.0673
49.0599
49.0525
49.0452
49.038
49.0309
49.0238
49.0168
49.01
49.0033
48.9967
48.9904
48.9844
48.9787
48.9734
48.9687
48.9648
48.9618
48.9601
48.96
48.962
48.9667
48.9749
48.9874
49.0055
49.0304
49.0637
49.1069
49.1614
49.2288
49.3084
49.8148
50.5381
49.7056
49.6766
49.6585
49.6388
49.6182
49.5974
49.5769
49.557
49.5379
49.5196
49.5022
49.4857
49.47
49.455
49.4407
49.4271
49.4139
49.4013
49.3891
49.3773
49.3658
49.3547
49.3439
49.3333
49.3229
49.3127
49.3028
49.293
49.2833
49.2738
49.2645
49.2553
49.2462
49.2372
49.2283
49.2195
49.2109
49.2023
49.1938
49.1853
49.177
49.1687
49.1606
49.1524
49.1444
49.1364
49.1285
49.1206
49.1128
49.105
49.0974
49.0897
49.0821
49.0746
49.0671
49.0597
49.0523
49.045
49.0378
49.0306
49.0235
49.0165
49.0096
49.0028
48.9961
48.9897
48.9834
48.9774
48.9718
48.9667
48.9622
48.9584
48.9557
48.9543
48.9546
48.9571
48.9625
48.9716
48.9854
49.0053
49.0325
49.0689
49.1159
49.1756
49.2474
49.743
50.5527
49.7171
49.685
49.6636
49.641
49.6179
49.5953
49.5735
49.5529
49.5334
49.515
49.4978
49.4815
49.4661
49.4514
49.4375
49.4241
49.4113
49.3989
49.387
49.3754
49.3642
49.3532
49.3425
49.332
49.3218
49.3117
49.3019
49.2921
49.2826
49.2732
49.2639
49.2547
49.2456
49.2367
49.2278
49.2191
49.2104
49.2019
49.1934
49.185
49.1767
49.1684
49.1603
49.1522
49.1441
49.1361
49.1282
49.1204
49.1126
49.1048
49.0971
49.0895
49.0819
49.0744
49.0669
49.0595
49.0521
49.0448
49.0375
49.0303
49.0232
49.0161
49.0091
49.0022
48.9954
48.9888
48.9823
48.976
48.9699
48.9642
48.959
48.9543
48.9503
48.9472
48.9454
48.9453
48.9472
48.952
48.9603
48.9735
48.9926
49.0197
49.0559
49.1043
49.1645
49.6431
50.5733
49.7327
49.6958
49.6696
49.6426
49.6163
49.5913
49.5681
49.5467
49.527
49.5088
49.4919
49.476
49.4611
49.4469
49.4335
49.4206
49.4081
49.3962
49.3845
49.3732
49.3622
49.3515
49.341
49.3307
49.3206
49.3106
49.3009
49.2912
49.2818
49.2724
49.2632
49.2541
49.2451
49.2362
49.2273
49.2186
49.21
49.2015
49.193
49.1847
49.1764
49.1681
49.16
49.1519
49.1439
49.1359
49.128
49.1201
49.1124
49.1046
49.0969
49.0893
49.0817
49.0742
49.0667
49.0593
49.0519
49.0446
49.0373
49.03
49.0229
49.0157
49.0086
49.0016
48.9947
48.9878
48.9811
48.9745
48.968
48.9617
48.9557
48.9499
48.9446
48.9399
48.9358
48.9327
48.9309
48.9309
48.9331
48.9385
48.948
48.9634
48.9858
49.019
49.0627
49.5166
50.6011
49.7531
49.7087
49.6753
49.6425
49.6119
49.5844
49.56
49.5382
49.5187
49.501
49.4847
49.4696
49.4554
49.442
49.4291
49.4168
49.4048
49.3933
49.382
49.371
49.3603
49.3498
49.3395
49.3294
49.3194
49.3096
49.2999
49.2904
49.281
49.2717
49.2625
49.2535
49.2445
49.2357
49.2269
49.2182
49.2096
49.2011
49.1927
49.1843
49.176
49.1678
49.1597
49.1516
49.1436
49.1357
49.1278
49.1199
49.1122
49.1044
49.0968
49.0891
49.0816
49.074
49.0665
49.0591
49.0517
49.0444
49.037
49.0298
49.0225
49.0154
49.0082
49.0011
48.994
48.987
48.98
48.9731
48.9662
48.9594
48.9527
48.946
48.9395
48.9332
48.927
48.9212
48.9158
48.911
48.907
48.9045
48.9036
48.906
48.9118
48.9257
48.9466
49.3659
50.6386
49.7792
49.7231
49.679
49.6384
49.6033
49.5737
49.5488
49.5275
49.509
49.4924
49.4772
49.4631
49.4498
49.4372
49.425
49.4132
49.4018
49.3907
49.3798
49.3691
49.3586
49.3483
49.3382
49.3282
49.3184
49.3087
49.2991
49.2897
49.2803
49.2711
49.262
49.253
49.2441
49.2352
49.2265
49.2178
49.2093
49.2008
49.1924
49.184
49.1758
49.1676
49.1595
49.1514
49.1434
49.1355
49.1276
49.1197
49.112
49.1043
49.0966
49.089
49.0814
49.0739
49.0664
49.0589
49.0515
49.0442
49.0369
49.0296
49.0223
49.0151
49.0079
49.0007
48.9935
48.9863
48.9792
48.972
48.9648
48.9576
48.9504
48.943
48.9356
48.928
48.9201
48.9121
48.9037
48.8949
48.8856
48.8757
48.865
48.8542
48.8418
48.8327
48.8222
49.1929
50.6892
49.8128
49.737
49.6775
49.6282
49.5896
49.5597
49.536
49.5164
49.4995
49.4844
49.4706
49.4576
49.4452
49.4332
49.4217
49.4104
49.3994
49.3886
49.378
49.3676
49.3573
49.3472
49.3372
49.3273
49.3176
49.308
49.2985
49.2891
49.2798
49.2706
49.2615
49.2526
49.2437
49.2349
49.2262
49.2175
49.209
49.2005
49.1921
49.1838
49.1755
49.1674
49.1592
49.1512
49.1432
49.1353
49.1274
49.1196
49.1118
49.1041
49.0964
49.0888
49.0813
49.0737
49.0662
49.0588
49.0514
49.044
49.0367
49.0294
49.0221
49.0149
49.0076
49.0004
48.9932
48.9859
48.9787
48.9714
48.964
48.9565
48.9489
48.9411
48.9331
48.9247
48.9158
48.9063
48.8959
48.8844
48.8712
48.8559
48.8374
48.8154
48.7855
48.7519
48.6961
48.9966
50.7614
49.8588
49.748
49.6689
49.6125
49.5733
49.5454
49.5242
49.5069
49.4919
49.4783
49.4656
49.4535
49.4418
49.4304
49.4193
49.4084
49.3977
49.3871
49.3767
49.3664
49.3563
49.3463
49.3364
49.3266
49.3169
49.3074
49.2979
49.2886
49.2793
49.2702
49.2611
49.2522
49.2433
49.2345
49.2258
49.2172
49.2087
49.2002
49.1919
49.1835
49.1753
49.1671
49.159
49.151
49.143
49.1351
49.1272
49.1194
49.1116
49.1039
49.0963
49.0887
49.0811
49.0736
49.0661
49.0587
49.0513
49.0439
49.0366
49.0293
49.022
49.0147
49.0075
49.0002
48.993
48.9857
48.9784
48.9711
48.9636
48.9561
48.9483
48.9404
48.9321
48.9234
48.9141
48.9039
48.8927
48.8799
48.8649
48.8468
48.8241
48.7951
48.7536
48.7006
48.5836
48.7734
50.9001
49.9253
49.7535
49.6538
49.5938
49.5569
49.5324
49.5143
49.4993
49.486
49.4736
49.4618
49.4503
49.4392
49.4282
49.4174
49.4067
49.3962
49.3858
49.3756
49.3654
49.3554
49.3454
49.3356
49.3259
49.3163
49.3068
49.2973
49.288
49.2788
49.2697
49.2607
49.2518
49.2429
49.2342
49.2255
49.2169
49.2084
49.1999
49.1916
49.1833
49.175
49.1669
49.1588
49.1508
49.1428
49.1349
49.127
49.1192
49.1115
49.1038
49.0961
49.0885
49.0809
49.0734
49.066
49.0585
49.0511
49.0438
49.0364
49.0291
49.0219
49.0146
49.0074
49.0001
48.9929
48.9856
48.9784
48.971
48.9636
48.9561
48.9484
48.9405
48.9322
48.9236
48.9143
48.9043
48.8932
48.8805
48.8655
48.8474
48.8245
48.7946
48.7522
48.6965
48.5798
48.6066
