# vtk DataFile Version 3.0
vtk output
ASCII
DATASET STRUCTURED_POINTS
DIMENSIONS 87 21 1
ORIGIN 0.0229885 0.0238095 0
SPACING 0.045977 0.047619 1
POINT_DATA 1827
SCALARS pressure double
LOOKUP_TABLE default
50.6528
49.8108
49.7094
49.6492
49.6109
49.5864
49.5698
49.5574
49.5467
49.5368
49.527
49.5173
49.5075
49.4978
49.4881
49.4787
49.4694
49.4606
49.452
49.4438
49.436
49.4284
49.4209
49.4136
49.4062
49.3987
49.3912
49.3835
49.3757
49.3677
49.3596
49.3514
49.3432
49.3349
49.3265
49.3181
49.3097
49.3012
49.2928
49.2843
49.2758
49.2674
49.2589
49.2504
49.2419
49.2334
49.225
49.2165
49.208
49.1995
49.191
49.1825
49.174
49.1656
49.1571
49.1486
49.1401
49.1316
49.1231
49.1146
49.1061
49.0975
49.089
49.0804
49.0718
49.0632
49.0544
49.0456
49.0367
49.0277
49.0184
49.0089
48.999
48.9887
48.9779
48.9662
48.9535
48.9394
48.9234
48.9047
48.8824
48.8545
48.8198
48.7691
48.7143
48.5722
48.5844
50.6528
49.7898
49.7185
49.6694
49.6323
49.6051
49.5847
49.5687
49.5553
49.5432
49.5319
49.5211
49.5105
49.5001
49.49
49.4801
49.4706
49.4614
49.4525
49.4441
49.4361
49.4284
49.4209
49.4134
49.4061
49.3986
49.3911
49.3834
49.3756
49.3677
49.3596
49.3514
49.3432
49.3348
49.3265
49.3181
49.3097
49.3012
49.2928
49.2843
49.2758
49.2674
49.2589
49.2504
49.2419
49.2334
49.225
49.2165
49.208
49.1995
49.191
49.1825
49.174
49.1656
49.1571
49.1486
49.1401
49.1316
49.1231
49.1146
49.1061
49.0975
49.089
49.0804
49.0718
49.0632
49.0544
49.0456
49.0367
49.0277
49.0184
49.0089
48.9991
48.9888
48.9779
48.9663
48.9536
48.9396
48.9238
48.9053
48.8836
48.8563
48.8237
48.7738
48.7255
48.5649
48.8821
50.6529
49.7864
49.7287
49.6873
49.6522
49.6237
49.6007
49.5817
49.5656
49.5514
49.5383
49.5261
49.5145
49.5034
49.4926
49.4822
49.4722
49.4626
49.4535
49.4448
49.4365
49.4287
49.421
49.4135
49.4061
49.3986
49.3911
49.3834
49.3756
49.3677
49.3596
49.3514
49.3432
49.3349
49.3265
49.3181
49.3097
49.3012
49.2928
49.2843
49.2758
49.2674
49.2589
49.2504
49.2419
49.2334
49.225
49.2165
49.208
49.1995
49.191
49.1825
49.174
49.1656
49.1571
49.1486
49.1401
49.1316
49.1231
49.1146
49.1061
49.0976
49.0891
49.0805
49.0719
49.0633
49.0546
49.0459
49.0371
49.0281
49.019
49.0096
49
48.9901
48.9796
48.9685
48.9566
48.9437
48.9293
48.913
48.8945
48.8722
48.8475
48.8135
48.7856
48.7321
49.1194
50.6529
49.7893
49.7387
49.7026
49.6699
49.6413
49.6168
49.5958
49.5774
49.5611
49.5463
49.5326
49.5198
49.5077
49.4962
49.4852
49.4747
49.4647
49.4552
49.4462
49.4376
49.4295
49.4216
49.414
49.4064
49.3988
49.3912
49.3835
49.3756
49.3677
49.3596
49.3514
49.3432
49.3348
49.3265
49.3181
49.3097
49.3012
49.2928
49.2843
49.2758
49.2674
49.2589
49.2504
49.2419
49.2334
49.225
49.2165
49.208
49.1995
49.191
49.1825
49.1741
49.1656
49.1571
49.1486
49.1401
49.1316
49.1232
49.1147
49.1062
49.0977
49.0892
49.0807
49.0722
49.0636
49.055
49.0464
49.0377
49.029
49.0201
49.0112
49.0021
48.9927
48.9831
48.9731
48.9627
48.9517
48.9401
48.9277
48.9147
48.9004
48.8872
48.8728
48.8685
48.8672
49.3003
50.653
49.7932
49.7466
49.7143
49.6838
49.656
49.631
49.6088
49.5889
49.5711
49.5548
49.5398
49.5259
49.5129
49.5006
49.4889
49.4779
49.4675
49.4576
49.4482
49.4393
49.4308
49.4227
49.4147
49.4069
49.3992
49.3914
49.3836
49.3757
49.3677
49.3596
49.3514
49.3432
49.3348
49.3265
49.3181
49.3097
49.3012
49.2928
49.2843
49.2758
49.2674
49.2589
49.2504
49.2419
49.2334
49.225
49.2165
49.208
49.1995
49.191
49.1825
49.1741
49.1656
49.1571
49.1486
49.1401
49.1317
49.1232
49.1147
49.1063
49.0978
49.0894
49.0809
49.0725
49.064
49.0556
49.0471
49.0387
49.0303
49.0218
49.0134
49.0049
48.9964
48.988
48.9795
48.9711
48.9628
48.9547
48.947
48.9403
48.9349
48.9329
48.935
48.948
48.9731
49.42
50.6531
49.7966
49.7527
49.7228
49.6942
49.6672
49.6424
49.6196
49.5988
49.5799
49.5626
49.5466
49.5318
49.518
49.505
49.4929
49.4814
49.4705
49.4602
49.4505
49.4413
49.4325
49.424
49.4158
49.4077
49.3998
49.3918
49.3839
49.3759
49.3678
49.3596
49.3514
49.3432
49.3348
49.3265
49.3181
49.3097
49.3012
49.2928
49.2843
49.2758
49.2674
49.2589
49.2504
49.2419
49.2334
49.225
49.2165
49.208
49.1995
49.191
49.1825
49.1741
49.1656
49.1571
49.1486
49.1402
49.1317
49.1233
49.1148
49.1064
49.098
49.0896
49.0812
49.0728
49.0645
49.0562
49.048
49.0398
49.0317
49.0237
49.0159
49.0082
49.0007
48.9935
48.9867
48.9805
48.975
48.9706
48.9676
48.9669
48.9692
48.9763
48.9898
49.0134
49.0496
49.4961
50.6533
49.7992
49.7571
49.7289
49.7015
49.6754
49.6507
49.6278
49.6066
49.587
49.569
49.5523
49.5368
49.5224
49.509
49.4964
49.4845
49.4733
49.4627
49.4527
49.4432
49.4341
49.4254
49.4169
49.4086
49.4004
49.3923
49.3842
49.3761
49.3679
49.3597
49.3515
49.3432
49.3349
49.3265
49.3181
49.3097
49.3012
49.2928
49.2843
49.2759
49.2674
49.2589
49.2504
49.2419
49.2334
49.225
49.2165
49.208
49.1995
49.191
49.1825
49.1741
49.1656
49.1571
49.1487
49.1402
49.1318
49.1233
49.1149
49.1065
49.0981
49.0898
49.0815
49.0732
49.065
49.0569
49.0488
49.0409
49.0332
49.0256
49.0184
49.0114
49.0049
48.999
48.9939
48.9897
48.9869
48.9857
48.9869
48.9911
48.9993
49.0129
49.0335
49.0628
49.1027
49.543
50.6535
49.8012
49.7603
49.733
49.7065
49.6809
49.6565
49.6335
49.6121
49.5922
49.5737
49.5565
49.5406
49.5258
49.512
49.4991
49.487
49.4756
49.4648
49.4546
49.4448
49.4355
49.4266
49.4179
49.4094
49.401
49.3928
49.3846
49.3763
49.3681
49.3599
49.3516
49.3433
49.3349
49.3265
49.3181
49.3097
49.3013
49.2928
49.2843
49.2759
49.2674
49.2589
49.2504
49.2419
49.2334
49.225
49.2165
49.208
49.1995
49.191
49.1825
49.1741
49.1656
49.1571
49.1487
49.1402
49.1318
49.1234
49.115
49.1066
49.0982
49.0899
49.0817
49.0735
49.0654
49.0574
49.0496
49.0419
49.0345
49.0273
49.0206
49.0143
49.0087
49.0039
49.0001
48.9977
48.9971
48.9986
49.003
49.0109
49.0234
49.0413
49.0658
49.0979
49.1382
49.5712
50.6537
49.8026
49.7622
49.7356
49.7095
49.6842
49.66
49.637
49.6154
49.5953
49.5766
49.5592
49.543
49.528
49.514
49.5009
49.4887
49.4771
49.4662
49.4559
49.4461
49.4366
49.4275
49.4187
49.4101
49.4016
49.3933
49.3849
49.3766
49.3683
49.36
49.3517
49.3434
49.335
49.3266
49.3182
49.3097
49.3013
49.2928
49.2844
49.2759
49.2674
49.2589
49.2504
49.2419
49.2334
49.225
49.2165
49.208
49.1995
49.191
49.1825
49.174
49.1656
49.1571
49.1487
49.1402
49.1318
49.1234
49.115
49.1066
49.0983
49.09
49.0818
49.0737
49.0657
49.0578
49.0501
49.0426
49.0354
49.0286
49.0223
49.0165
49.0116
49.0076
49.0049
49.0039
49.0048
49.0084
49.015
49.0256
49.0407
49.0613
49.0879
49.1211
49.1607
49.5878
50.654
49.8033
49.7632
49.7367
49.7107
49.6855
49.6613
49.6383
49.6167
49.5965
49.5777
49.5602
49.544
49.5289
49.5149
49.5018
49.4895
49.478
49.4671
49.4567
49.4469
49.4374
49.4282
49.4193
49.4107
49.4021
49.3937
49.3853
49.3769
49.3686
49.3602
49.3519
49.3435
49.3351
49.3267
49.3182
49.3098
49.3013
49.2929
49.2844
49.2759
49.2674
49.2589
49.2504
49.2419
49.2334
49.2249
49.2165
49.208
49.1995
49.191
49.1825
49.174
49.1656
49.1571
49.1486
49.1402
49.1318
49.1234
49.115
49.1066
49.0983
49.0901
49.0819
49.0738
49.0659
49.0581
49.0504
49.0431
49.036
49.0294
49.0233
49.0179
49.0134
49.01
49.008
49.0078
49.0098
49.0145
49.0226
49.0346
49.0513
49.0733
49.101
49.1345
49.1734
49.5967
50.6543
49.8035
49.7631
49.7363
49.7102
49.6849
49.6606
49.6375
49.6159
49.5957
49.577
49.5596
49.5434
49.5285
49.5146
49.5016
49.4895
49.4781
49.4673
49.457
49.4472
49.4378
49.4287
49.4198
49.4111
49.4025
49.394
49.3856
49.3772
49.3688
49.3604
49.352
49.3436
49.3352
49.3268
49.3183
49.3099
49.3014
49.2929
49.2844
49.2759
49.2674
49.2589
49.2504
49.2419
49.2334
49.2249
49.2165
49.208
49.1995
49.191
49.1825
49.174
49.1655
49.1571
49.1486
49.1402
49.1317
49.1233
49.115
49.1066
49.0983
49.0901
49.0819
49.0738
49.0659
49.0581
49.0505
49.0432
49.0362
49.0296
49.0237
49.0184
49.014
49.0108
49.0091
49.0092
49.0116
49.0168
49.0254
49.0381
49.0554
49.0779
49.1059
49.1395
49.178
49.6
50.6548
49.803
49.7619
49.7345
49.7079
49.6822
49.6577
49.6346
49.613
49.593
49.5744
49.5573
49.5415
49.5268
49.5132
49.5005
49.4886
49.4774
49.4668
49.4568
49.4471
49.4378
49.4288
49.42
49.4113
49.4028
49.3943
49.3859
49.3775
49.3691
49.3606
49.3522
49.3438
49.3353
49.3269
49.3184
49.3099
49.3014
49.293
49.2845
49.276
49.2675
49.259
49.2504
49.2419
49.2334
49.2249
49.2164
49.2079
49.1994
49.191
49.1825
49.174
49.1655
49.157
49.1486
49.1401
49.1317
49.1233
49.1149
49.1065
49.0982
49.0899
49.0818
49.0737
49.0657
49.0579
49.0502
49.0429
49.0359
49.0292
49.0232
49.0178
49.0134
49.0101
49.0082
49.0081
49.0103
49.0153
49.0236
49.0359
49.0529
49.0751
49.1029
49.1365
49.1752
49.5984
50.6552
49.8018
49.7595
49.731
49.7036
49.6773
49.6525
49.6293
49.6079
49.5882
49.57
49.5533
49.538
49.5238
49.5106
49.4984
49.4869
49.4761
49.4659
49.4561
49.4467
49.4376
49.4287
49.42
49.4115
49.403
49.3945
49.3861
49.3777
49.3693
49.3609
49.3524
49.344
49.3355
49.327
49.3185
49.31
49.3015
49.293
49.2845
49.276
49.2675
49.259
49.2505
49.242
49.2334
49.2249
49.2164
49.2079
49.1994
49.1909
49.1824
49.1739
49.1655
49.157
49.1485
49.1401
49.1316
49.1232
49.1148
49.1064
49.0981
49.0898
49.0815
49.0734
49.0654
49.0575
49.0497
49.0422
49.0351
49.0283
49.022
49.0163
49.0115
49.0077
49.0052
49.0045
49.0058
49.0098
49.017
49.0281
49.0439
49.0649
49.0919
49.1251
49.1644
49.5914
50.6557
49.7998
49.7555
49.7255
49.6968
49.6698
49.6446
49.6215
49.6004
49.5812
49.5637
49.5477
49.533
49.5195
49.507
49.4954
49.4844
49.4741
49.4644
49.455
49.4459
49.4371
49.4285
49.42
49.4115
49.4031
49.3948
49.3864
49.378
49.3696
49.3611
49.3526
49.3442
49.3357
49.3272
49.3186
49.3101
49.3016
49.2931
49.2845
49.276
49.2675
49.259
49.2505
49.242
49.2334
49.2249
49.2164
49.2079
49.1994
49.1909
49.1824
49.1739
49.1654
49.1569
49.1485
49.14
49.1315
49.1231
49.1146
49.1062
49.0978
49.0895
49.0812
49.073
49.0649
49.0568
49.049
49.0413
49.0339
49.0268
49.0201
49.0139
49.0085
49.0039
49.0005
48.9985
48.9984
49.0007
49.0059
49.0148
49.0283
49.0471
49.0722
49.1045
49.1442
49.5769
50.6562
49.7965
49.7496
49.7173
49.687
49.6591
49.6337
49.6108
49.5903
49.572
49.5554
49.5404
49.5267
49.5141
49.5024
49.4916
49.4814
49.4717
49.4625
49.4536
49.4449
49.4365
49.4281
49.4198
49.4116
49.4033
49.395
49.3866
49.3782
49.3698
49.3614
49.3529
49.3444
49.3358
49.3273
49.3187
49.3102
49.3017
49.2931
49.2846
49.2761
49.2675
49.259
49.2505
49.242
49.2334
49.2249
49.2164
49.2079
49.1994
49.1909
49.1824
49.1739
49.1654
49.1569
49.1484
49.1399
49.1314
49.1229
49.1145
49.106
49.0976
49.0892
49.0808
49.0725
49.0643
49.0561
49.048
49.0401
49.0324
49.0248
49.0176
49.0108
49.0045
48.9989
48.9942
48.9906
48.9885
48.9884
48.9907
48.9964
49.0062
49.0213
49.043
49.0729
49.112
49.5511
50.6568
49.7917
49.7409
49.7056
49.6733
49.6444
49.6191
49.597
49.5776
49.5606
49.5454
49.5317
49.5193
49.5079
49.4973
49.4873
49.4779
49.469
49.4604
49.4521
49.4439
49.4358
49.4277
49.4197
49.4116
49.4034
49.3952
49.3869
49.3785
49.3701
49.3616
49.3531
49.3445
49.336
49.3274
49.3189
49.3103
49.3017
49.2932
49.2846
49.2761
49.2675
49.259
49.2505
49.242
49.2334
49.2249
49.2164
49.2079
49.1994
49.1909
49.1823
49.1738
49.1653
49.1568
49.1483
49.1398
49.1313
49.1228
49.1143
49.1058
49.0973
49.0889
49.0804
49.072
49.0636
49.0553
49.047
49.0388
49.0307
49.0227
49.0149
49.0073
49.0001
48.9932
48.9869
48.9814
48.9769
48.9737
48.9724
48.9736
48.9783
48.9879
49.0037
49.0287
49.0642
49.5082
50.6573
49.7846
49.7283
49.6888
49.6543
49.6251
49.6006
49.5802
49.5628
49.5477
49.5344
49.5225
49.5116
49.5015
49.4921
49.4832
49.4747
49.4665
49.4585
49.4507
49.443
49.4352
49.4275
49.4196
49.4117
49.4036
49.3954
49.3872
49.3788
49.3703
49.3618
49.3533
49.3447
49.3361
49.3275
49.3189
49.3104
49.3018
49.2932
49.2847
49.2761
49.2676
49.259
49.2505
49.242
49.2334
49.2249
49.2164
49.2079
49.1993
49.1908
49.1823
49.1738
49.1653
49.1568
49.1482
49.1397
49.1312
49.1227
49.1141
49.1056
49.0971
49.0886
49.08
49.0715
49.063
49.0545
49.046
49.0375
49.029
49.0206
49.0122
49.0038
48.9956
48.9875
48.9796
48.9719
48.9647
48.9582
48.9526
48.9486
48.9466
48.9486
48.9551
48.9716
48.9972
49.4395
50.6579
49.7744
49.71
49.6654
49.6294
49.6013
49.5794
49.562
49.5475
49.5351
49.5241
49.5141
49.5048
49.4961
49.4878
49.4798
49.4721
49.4646
49.4571
49.4498
49.4424
49.435
49.4274
49.4197
49.4118
49.4038
49.3957
49.3874
49.379
49.3705
49.362
49.3534
49.3448
49.3362
49.3276
49.319
49.3104
49.3018
49.2933
49.2847
49.2761
49.2676
49.259
49.2505
49.242
49.2334
49.2249
49.2164
49.2079
49.1993
49.1908
49.1823
49.1738
49.1652
49.1567
49.1482
49.1396
49.1311
49.1226
49.114
49.1055
49.0969
49.0883
49.0797
49.0711
49.0625
49.0538
49.0451
49.0364
49.0276
49.0188
49.0099
49.0008
48.9917
48.9825
48.9731
48.9636
48.9539
48.944
48.9341
48.9245
48.9151
48.9079
48.9014
48.9047
48.9098
49.3363
50.6584
49.7615
49.6847
49.6351
49.6004
49.5765
49.5593
49.5461
49.5351
49.5254
49.5165
49.5082
49.5002
49.4925
49.485
49.4778
49.4706
49.4635
49.4565
49.4494
49.4422
49.4349
49.4274
49.4198
49.412
49.404
49.3958
49.3875
49.3791
49.3706
49.3621
49.3535
49.3449
49.3363
49.3277
49.3191
49.3104
49.3019
49.2933
49.2847
49.2761
49.2676
49.259
49.2505
49.242
49.2334
49.2249
49.2164
49.2078
49.1993
49.1908
49.1823
49.1737
49.1652
49.1567
49.1481
49.1396
49.1311
49.1225
49.1139
49.1054
49.0968
49.0881
49.0795
49.0708
49.0621
49.0534
49.0446
49.0357
49.0267
49.0176
49.0083
48.9989
48.9891
48.9791
48.9687
48.9577
48.9461
48.9337
48.9203
48.9058
48.8896
48.8729
48.8519
48.8381
48.8069
49.1948
50.6589
49.7522
49.6564
49.6048
49.5754
49.5577
49.5454
49.5358
49.5274
49.5197
49.5122
49.505
49.4978
49.4908
49.4839
49.477
49.4701
49.4633
49.4564
49.4494
49.4423
49.435
49.4276
49.4199
49.4121
49.404
49.3959
49.3876
49.3792
49.3707
49.3621
49.3535
49.3449
49.3363
49.3277
49.3191
49.3105
49.3019
49.2933
49.2847
49.2761
49.2676
49.259
49.2505
49.242
49.2334
49.2249
49.2164
49.2078
49.1993
49.1908
49.1823
49.1737
49.1652
49.1567
49.1481
49.1396
49.131
49.1225
49.1139
49.1053
49.0967
49.0881
49.0794
49.0707
49.062
49.0532
49.0443
49.0354
49.0263
49.0171
49.0077
48.9981
48.9881
48.9777
48.9668
48.9553
48.9428
48.9291
48.9138
48.8965
48.876
48.8526
48.8207
48.79
48.7118
49.0334
50.6591
49.7638
49.6372
49.5834
49.5586
49.5456
49.5368
49.5297
49.523
49.5165
49.51
49.5034
49.4967
49.4901
49.4835
49.4768
49.4702
49.4634
49.4566
49.4496
49.4425
49.4352
49.4277
49.4201
49.4122
49.4041
49.3959
49.3876
49.3792
49.3707
49.3621
49.3535
49.3449
49.3363
49.3277
49.3191
49.3105
49.3019
49.2933
49.2847
49.2761
49.2676
49.259
49.2505
49.242
49.2334
49.2249
49.2164
49.2078
49.1993
49.1908
49.1823
49.1737
49.1652
49.1567
49.1481
49.1396
49.131
49.1225
49.1139
49.1053
49.0967
49.0881
49.0795
49.0708
49.062
49.0533
49.0444
49.0355
49.0264
49.0172
49.0079
48.9983
48.9884
48.9781
48.9672
48.9557
48.9434
48.9298
48.9146
48.8972
48.8766
48.852
48.819
48.7821
48.6992
48.9192
