# vtk DataFile Version 3.0
vtk output
ASCII
DATASET STRUCTURED_POINTS
DIMENSIONS 87 21 1
ORIGIN 0.0229885 0.0238095 0
SPACING 0.045977 0.047619 1
POINT_DATA 1827
SCALARS pressure double
LOOKUP_TABLE default
50.5842
49.7397
49.6379
49.5774
49.5387
49.5138
49.497
49.4843
49.4734
49.4632
49.4532
49.4431
49.4329
49.4227
49.4125
49.4022
49.3921
49.3819
49.3719
49.362
49.3521
49.3424
49.3328
49.3234
49.314
49.3047
49.2956
49.2866
49.2777
49.2689
49.2601
49.2515
49.243
49.2346
49.2262
49.2179
49.2097
49.2016
49.1936
49.1856
49.1776
49.1698
49.162
49.1542
49.1465
49.1389
49.1313
49.1238
49.1163
49.1088
49.1014
49.0941
49.0867
49.0795
49.0722
49.065
49.0578
49.0507
49.0436
49.0365
49.0294
49.0224
49.0153
49.0083
49.0013
48.9942
48.9872
48.9801
48.9729
48.9657
48.9583
48.9507
48.9429
48.9347
48.9261
48.9168
48.9065
48.8951
48.8819
48.8663
48.8472
48.8228
48.7913
48.7445
48.6897
48.5529
48.5528
50.5842
49.7187
49.647
49.5975
49.5601
49.5325
49.5119
49.4957
49.482
49.4697
49.4581
49.447
49.4361
49.4253
49.4146
49.4041
49.3936
49.3833
49.3731
49.3631
49.3532
49.3434
49.3337
49.3241
49.3147
49.3054
49.2962
49.2872
49.2782
49.2694
49.2606
49.252
49.2434
49.235
49.2266
49.2183
49.2101
49.202
49.1939
49.1859
49.1779
49.1701
49.1623
49.1545
49.1468
49.1391
49.1315
49.124
49.1165
49.109
49.1016
49.0942
49.0869
49.0796
49.0724
49.0652
49.058
49.0508
49.0437
49.0366
49.0295
49.0225
49.0154
49.0084
49.0014
48.9943
48.9873
48.9802
48.973
48.9658
48.9584
48.9508
48.9429
48.9347
48.926
48.9167
48.9064
48.8949
48.8818
48.8662
48.8473
48.8231
48.793
48.746
48.6966
48.5346
48.7919
50.5842
49.7153
49.6572
49.6154
49.58
49.5512
49.5279
49.5087
49.4923
49.4778
49.4646
49.4521
49.4401
49.4286
49.4173
49.4063
49.3955
49.385
49.3745
49.3643
49.3542
49.3443
49.3345
49.3249
49.3154
49.3061
49.2969
49.2877
49.2788
49.2699
49.2611
49.2524
49.2439
49.2354
49.227
49.2187
49.2104
49.2023
49.1942
49.1862
49.1782
49.1703
49.1625
49.1547
49.147
49.1394
49.1317
49.1242
49.1167
49.1092
49.1018
49.0944
49.0871
49.0798
49.0725
49.0653
49.0581
49.051
49.0438
49.0367
49.0297
49.0226
49.0156
49.0086
49.0016
48.9946
48.9875
48.9805
48.9734
48.9662
48.9589
48.9514
48.9438
48.9358
48.9275
48.9186
48.909
48.8984
48.8866
48.8729
48.857
48.8369
48.8144
48.7797
48.7505
48.6819
49.0038
50.5842
49.7182
49.6671
49.6308
49.5977
49.5689
49.5441
49.5227
49.5041
49.4875
49.4724
49.4585
49.4453
49.4328
49.4208
49.4092
49.3979
49.387
49.3763
49.3658
49.3555
49.3454
49.3355
49.3258
49.3162
49.3068
49.2975
49.2884
49.2793
49.2704
49.2616
49.2529
49.2443
49.2358
49.2274
49.219
49.2108
49.2026
49.1945
49.1865
49.1785
49.1706
49.1628
49.155
49.1472
49.1396
49.132
49.1244
49.1169
49.1094
49.102
49.0946
49.0872
49.0799
49.0727
49.0655
49.0583
49.0511
49.044
49.0369
49.0298
49.0228
49.0158
49.0088
49.0019
48.9949
48.988
48.981
48.974
48.9671
48.96
48.9529
48.9457
48.9384
48.9309
48.9231
48.915
48.9065
48.8975
48.8876
48.8774
48.8653
48.8547
48.8388
48.8343
48.8165
49.2035
50.5842
49.722
49.6751
49.6424
49.6117
49.5835
49.5583
49.5357
49.5155
49.4973
49.4807
49.4654
49.4511
49.4376
49.4248
49.4126
49.4008
49.3894
49.3783
49.3675
49.357
49.3468
49.3367
49.3269
49.3172
49.3077
49.2983
49.2891
49.28
49.271
49.2622
49.2534
49.2448
49.2363
49.2278
49.2195
49.2112
49.203
49.1949
49.1868
49.1788
49.1709
49.1631
49.1553
49.1475
49.1398
49.1322
49.1246
49.1171
49.1096
49.1022
49.0948
49.0874
49.0801
49.0729
49.0656
49.0584
49.0513
49.0442
49.0371
49.0301
49.0231
49.0161
49.0092
49.0023
48.9954
48.9886
48.9818
48.9751
48.9684
48.9618
48.9553
48.9488
48.9424
48.9362
48.9301
48.9243
48.9188
48.9139
48.9096
48.9069
48.9051
48.9081
48.912
48.9299
48.9476
49.378
50.5842
49.7253
49.681
49.6509
49.6219
49.5947
49.5695
49.5464
49.5253
49.5061
49.4884
49.472
49.4567
49.4424
49.4289
49.416
49.4037
49.3918
49.3804
49.3694
49.3586
49.3482
49.338
49.328
49.3182
49.3086
49.2992
49.2899
49.2807
49.2717
49.2628
49.2541
49.2454
49.2368
49.2283
49.22
49.2116
49.2034
49.1953
49.1872
49.1792
49.1713
49.1634
49.1556
49.1478
49.1401
49.1325
49.1249
49.1173
49.1098
49.1024
49.095
49.0876
49.0803
49.0731
49.0658
49.0586
49.0515
49.0444
49.0373
49.0303
49.0234
49.0164
49.0096
49.0028
48.9961
48.9894
48.9829
48.9765
48.9702
48.9641
48.9583
48.9527
48.9476
48.943
48.939
48.9361
48.9343
48.9342
48.9363
48.9418
48.9508
48.967
48.9884
49.0246
49.0664
49.5295
50.5842
49.7278
49.6854
49.6568
49.6292
49.6027
49.5778
49.5545
49.533
49.513
49.4946
49.4774
49.4615
49.4465
49.4324
49.419
49.4063
49.3941
49.3824
49.3711
49.3602
49.3495
49.3392
49.3291
49.3192
49.3095
49.3
49.2907
49.2815
49.2724
49.2635
49.2547
49.246
49.2374
49.2289
49.2205
49.2121
49.2039
49.1957
49.1876
49.1796
49.1716
49.1638
49.1559
49.1481
49.1404
49.1328
49.1252
49.1176
49.1101
49.1026
49.0952
49.0879
49.0805
49.0733
49.066
49.0589
49.0517
49.0446
49.0376
49.0306
49.0237
49.0168
49.01
49.0034
48.9968
48.9903
48.984
48.978
48.9721
48.9667
48.9616
48.9571
48.9533
48.9504
48.9488
48.9488
48.9508
48.9557
48.9641
48.9775
48.9965
49.0242
49.06
49.1102
49.169
49.6556
50.5842
49.7296
49.6883
49.6608
49.634
49.6081
49.5834
49.5601
49.5383
49.518
49.4991
49.4814
49.465
49.4495
49.435
49.4213
49.4083
49.3958
49.3839
49.3725
49.3614
49.3506
49.3402
49.33
49.3201
49.3103
49.3008
49.2914
49.2822
49.2731
49.2641
49.2553
49.2465
49.2379
49.2294
49.221
49.2126
49.2043
49.1962
49.188
49.18
49.172
49.1641
49.1563
49.1485
49.1407
49.1331
49.1254
49.1179
49.1104
49.1029
49.0955
49.0881
49.0808
49.0735
49.0663
49.0591
49.0519
49.0449
49.0378
49.0309
49.024
49.0172
49.0105
49.0039
48.9975
48.9912
48.9852
48.9794
48.974
48.9691
48.9648
48.9612
48.9587
48.9575
48.9581
48.9608
48.9664
48.9758
48.9897
49.0098
49.0371
49.0739
49.1206
49.1811
49.2516
49.7547
50.5842
49.7307
49.6901
49.6632
49.6369
49.6113
49.5867
49.5634
49.5415
49.521
49.5018
49.4838
49.4671
49.4514
49.4367
49.4227
49.4095
49.3969
49.3849
49.3733
49.3622
49.3514
49.3409
49.3307
49.3207
49.3109
49.3013
49.2919
49.2827
49.2736
49.2646
49.2558
49.247
49.2384
49.2298
49.2214
49.213
49.2047
49.1965
49.1884
49.1804
49.1724
49.1644
49.1566
49.1488
49.141
49.1333
49.1257
49.1181
49.1106
49.1031
49.0957
49.0883
49.081
49.0737
49.0664
49.0593
49.0521
49.045
49.038
49.0311
49.0242
49.0175
49.0108
49.0043
48.998
48.9919
48.9861
48.9806
48.9755
48.9711
48.9674
48.9647
48.9632
48.9634
48.9657
48.9706
48.9791
48.9919
49.0102
49.0354
49.0687
49.1121
49.1662
49.2336
49.3118
49.8256
50.5842
49.7312
49.6907
49.664
49.6379
49.6124
49.5879
49.5646
49.5426
49.522
49.5027
49.4846
49.4678
49.452
49.4372
49.4232
49.4099
49.3973
49.3853
49.3737
49.3625
49.3517
49.3412
49.331
49.321
49.3112
49.3017
49.2923
49.283
49.2739
49.2649
49.2561
49.2473
49.2387
49.2302
49.2217
49.2133
49.205
49.1968
49.1887
49.1806
49.1726
49.1647
49.1568
49.149
49.1413
49.1336
49.1259
49.1183
49.1108
49.1033
49.0958
49.0885
49.0811
49.0738
49.0666
49.0594
49.0523
49.0452
49.0382
49.0313
49.0244
49.0177
49.0111
49.0046
48.9984
48.9923
48.9866
48.9813
48.9765
48.9724
48.9691
48.9669
48.9661
48.9672
48.9706
48.9771
48.9873
49.0024
49.0234
49.0517
49.0886
49.1359
49.1943
49.2656
49.3478
49.8677
50.5842
49.731
49.6904
49.6635
49.6371
49.6115
49.587
49.5636
49.5416
49.521
49.5018
49.4838
49.467
49.4513
49.4366
49.4227
49.4095
49.3969
49.3849
49.3734
49.3623
49.3516
49.3411
49.331
49.321
49.3113
49.3017
49.2924
49.2831
49.2741
49.2651
49.2563
49.2475
49.2389
49.2303
49.2219
49.2135
49.2052
49.197
49.1889
49.1808
49.1728
49.1649
49.157
49.1492
49.1414
49.1337
49.1261
49.1185
49.1109
49.1034
49.096
49.0886
49.0812
49.0739
49.0667
49.0595
49.0523
49.0452
49.0382
49.0313
49.0245
49.0177
49.0111
49.0047
48.9984
48.9925
48.9868
48.9815
48.9768
48.9728
48.9696
48.9676
48.9671
48.9685
48.9724
48.9793
48.9902
49.0061
49.028
49.0574
49.0956
49.1441
49.2037
49.276
49.3592
49.8807
50.5842
49.7302
49.6889
49.6614
49.6346
49.6086
49.5839
49.5605
49.5386
49.5181
49.499
49.4813
49.4648
49.4493
49.4348
49.4211
49.4082
49.3958
49.384
49.3726
49.3616
49.351
49.3407
49.3306
49.3207
49.3111
49.3016
49.2922
49.2831
49.274
49.2651
49.2563
49.2475
49.2389
49.2304
49.222
49.2136
49.2053
49.1971
49.189
49.1809
49.1729
49.1649
49.1571
49.1492
49.1415
49.1338
49.1261
49.1185
49.111
49.1035
49.096
49.0886
49.0812
49.0739
49.0667
49.0595
49.0523
49.0452
49.0382
49.0312
49.0244
49.0176
49.011
49.0045
48.9983
48.9922
48.9865
48.9812
48.9764
48.9722
48.9689
48.9668
48.966
48.9672
48.9707
48.9772
48.9876
49.0028
49.0239
49.0523
49.0892
49.1363
49.1943
49.2648
49.346
49.8648
50.5842
49.7287
49.6861
49.6576
49.63
49.6035
49.5785
49.5551
49.5333
49.5131
49.4945
49.4772
49.4611
49.446
49.4319
49.4186
49.406
49.3939
49.3824
49.3713
49.3605
49.35
49.3398
49.3299
49.3201
49.3106
49.3012
49.2919
49.2828
49.2738
49.2649
49.2561
49.2474
49.2388
49.2303
49.2219
49.2135
49.2053
49.1971
49.1889
49.1809
49.1729
49.1649
49.1571
49.1492
49.1415
49.1338
49.1261
49.1185
49.1109
49.1034
49.096
49.0886
49.0812
49.0739
49.0666
49.0594
49.0522
49.0451
49.0381
49.0311
49.0242
49.0174
49.0107
49.0042
48.9978
48.9917
48.9858
48.9803
48.9752
48.9708
48.9671
48.9644
48.963
48.9633
48.9657
48.9709
48.9796
48.9928
49.0114
49.0368
49.0702
49.1134
49.1668
49.2329
49.309
49.8207
50.5842
49.7262
49.6818
49.6517
49.623
49.5958
49.5705
49.5471
49.5257
49.506
49.488
49.4714
49.4559
49.4415
49.428
49.4153
49.4031
49.3915
49.3803
49.3694
49.3589
49.3487
49.3387
49.3289
49.3193
49.3099
49.3006
49.2914
49.2824
49.2734
49.2646
49.2558
49.2472
49.2386
49.2301
49.2217
49.2134
49.2052
49.197
49.1888
49.1808
49.1728
49.1649
49.157
49.1492
49.1414
49.1337
49.126
49.1184
49.1109
49.1034
49.0959
49.0885
49.0811
49.0738
49.0665
49.0593
49.0521
49.045
49.0379
49.0309
49.0239
49.0171
49.0103
49.0037
48.9972
48.9909
48.9848
48.979
48.9736
48.9687
48.9644
48.9609
48.9585
48.9575
48.9583
48.9614
48.9674
48.9773
48.992
49.0127
49.0404
49.0773
49.1233
49.1822
49.2499
49.7494
50.5842
49.7225
49.6755
49.6433
49.613
49.5849
49.5594
49.5363
49.5156
49.4968
49.4797
49.464
49.4495
49.436
49.4233
49.4112
49.3996
49.3885
49.3778
49.3673
49.3571
49.3472
49.3374
49.3278
49.3184
49.3091
49.2999
49.2908
49.2818
49.273
49.2642
49.2555
49.2469
49.2384
49.2299
49.2215
49.2132
49.205
49.1968
49.1887
49.1807
49.1727
49.1648
49.1569
49.1491
49.1413
49.1336
49.126
49.1183
49.1108
49.1033
49.0958
49.0884
49.081
49.0737
49.0664
49.0591
49.0519
49.0448
49.0377
49.0306
49.0236
49.0167
49.0099
49.0031
48.9965
48.99
48.9836
48.9775
48.9716
48.9661
48.9611
48.9567
48.953
48.9504
48.9492
48.9497
48.9525
48.9583
48.9678
48.9823
49.0026
49.031
49.067
49.1158
49.1714
49.6528
50.5842
49.7172
49.6665
49.6313
49.599
49.5702
49.5448
49.5225
49.5029
49.4855
49.4698
49.4554
49.4422
49.4297
49.418
49.4067
49.3959
49.3854
49.3751
49.3651
49.3553
49.3456
49.3361
49.3267
49.3174
49.3082
49.2992
49.2902
49.2813
49.2725
49.2638
49.2551
49.2466
49.2381
49.2297
49.2213
49.213
49.2048
49.1967
49.1886
49.1805
49.1726
49.1646
49.1568
49.149
49.1412
49.1335
49.1259
49.1182
49.1107
49.1032
49.0957
49.0883
49.0809
49.0736
49.0663
49.059
49.0518
49.0446
49.0375
49.0304
49.0233
49.0163
49.0094
49.0025
48.9957
48.989
48.9824
48.976
48.9697
48.9636
48.9578
48.9524
48.9474
48.9432
48.9397
48.9374
48.9366
48.9379
48.9417
48.9493
48.9608
48.9791
49.0025
49.0385
49.0776
49.534
50.5842
49.7097
49.6536
49.6143
49.58
49.5509
49.5264
49.5059
49.4883
49.4729
49.4591
49.4465
49.4347
49.4235
49.4128
49.4024
49.3923
49.3824
49.3727
49.3631
49.3536
49.3442
49.3349
49.3257
49.3166
49.3075
49.2986
49.2897
49.2809
49.2721
49.2634
49.2548
49.2463
49.2378
49.2294
49.2211
49.2128
49.2046
49.1965
49.1884
49.1804
49.1724
49.1645
49.1567
49.1489
49.1411
49.1334
49.1258
49.1182
49.1106
49.1031
49.0956
49.0882
49.0808
49.0734
49.0661
49.0589
49.0516
49.0444
49.0373
49.0302
49.0231
49.016
49.009
49.002
48.9951
48.9882
48.9814
48.9746
48.9679
48.9613
48.9549
48.9485
48.9424
48.9366
48.9312
48.9263
48.9221
48.919
48.9171
48.9174
48.9197
48.9269
48.9358
48.9565
48.9741
49.3972
50.5842
49.6993
49.6351
49.5908
49.5551
49.5272
49.5055
49.488
49.4734
49.4607
49.4492
49.4384
49.4282
49.4182
49.4085
49.3989
49.3895
49.3801
49.3708
49.3615
49.3523
49.3431
49.334
49.3249
49.3159
49.307
49.2981
49.2893
49.2805
49.2718
49.2632
49.2546
49.2461
49.2376
49.2293
49.2209
49.2127
49.2045
49.1964
49.1883
49.1803
49.1723
49.1644
49.1566
49.1488
49.141
49.1333
49.1257
49.1181
49.1105
49.103
49.0955
49.0881
49.0807
49.0734
49.066
49.0588
49.0515
49.0443
49.0371
49.03
49.0229
49.0158
49.0087
49.0016
48.9946
48.9876
48.9806
48.9736
48.9666
48.9597
48.9527
48.9457
48.9387
48.9317
48.9247
48.9177
48.9107
48.9038
48.8971
48.8909
48.8846
48.8807
48.8743
48.878
48.8679
49.2486
50.5842
49.6861
49.6098
49.5607
49.5264
49.5028
49.4857
49.4724
49.4612
49.4511
49.4417
49.4325
49.4235
49.4145
49.4055
49.3965
49.3875
49.3785
49.3694
49.3604
49.3513
49.3423
49.3333
49.3244
49.3154
49.3065
49.2977
49.2889
49.2802
49.2715
49.2629
49.2544
49.2459
49.2375
49.2291
49.2208
49.2125
49.2044
49.1962
49.1882
49.1802
49.1722
49.1643
49.1565
49.1487
49.1409
49.1332
49.1256
49.118
49.1104
49.1029
49.0954
49.088
49.0806
49.0733
49.066
49.0587
49.0514
49.0442
49.037
49.0299
49.0227
49.0156
49.0085
49.0014
48.9943
48.9872
48.9802
48.973
48.9659
48.9587
48.9514
48.944
48.9365
48.9288
48.9208
48.9125
48.9037
48.8943
48.8841
48.873
48.8601
48.8467
48.8265
48.8129
48.7676
49.0976
50.5842
49.6768
49.5816
49.5305
49.5016
49.484
49.4718
49.4621
49.4534
49.4452
49.4371
49.4289
49.4206
49.4122
49.4037
49.395
49.3862
49.3774
49.3685
49.3596
49.3507
49.3418
49.3328
49.3239
49.315
49.3062
49.2974
49.2886
49.2799
49.2713
49.2627
49.2542
49.2457
49.2373
49.2289
49.2206
49.2124
49.2042
49.1961
49.188
49.18
49.1721
49.1642
49.1563
49.1486
49.1408
49.1331
49.1255
49.1179
49.1103
49.1028
49.0954
49.0879
49.0805
49.0732
49.0659
49.0586
49.0513
49.0441
49.0369
49.0298
49.0226
49.0155
49.0084
49.0013
48.9942
48.9871
48.98
48.9728
48.9656
48.9584
48.951
48.9435
48.9358
48.9278
48.9195
48.9107
48.9012
48.8907
48.879
48.8655
48.849
48.8295
48.8009
48.7724
48.6887
48.9641
50.5842
49.6883
49.5622
49.5089
49.4845
49.4716
49.4629
49.4556
49.4486
49.4415
49.4342
49.4266
49.4188
49.4107
49.4024
49.394
49.3854
49.3767
49.3679
49.3591
49.3502
49.3413
49.3324
49.3235
49.3147
49.3059
49.2971
49.2883
49.2797
49.271
49.2624
49.2539
49.2455
49.2371
49.2287
49.2204
49.2122
49.204
49.1959
49.1879
49.1799
49.1719
49.164
49.1562
49.1484
49.1407
49.133
49.1253
49.1178
49.1102
49.1027
49.0952
49.0878
49.0804
49.0731
49.0658
49.0585
49.0513
49.044
49.0369
49.0297
49.0226
49.0155
49.0084
49.0013
48.9942
48.9871
48.98
48.9729
48.9657
48.9585
48.9512
48.9437
48.9361
48.9282
48.9201
48.9114
48.9022
48.892
48.8806
48.8674
48.8512
48.8312
48.8026
48.7692
48.6864
48.8859
