# vtk DataFile Version 3.0
vtk output
ASCII
DATASET UNSTRUCTURED_GRID
POINTS 1913 double
0.045977 0 0
0.045977 0.0952381 0
0.045977 0.142857 0
0.045977 0.190476 0
0.045977 0.238095 0
0.045977 0.285714 0
0.045977 0.333333 0
0.045977 0.380952 0
0.045977 0.428571 0
0.045977 0.47619 0
0.045977 0.52381 0
0.045977 0.571429 0
0.045977 0.619048 0
0.045977 0.666667 0
0.045977 0.714286 0
0.045977 0.761905 0
0.045977 0.809524 0
0.045977 0.857143 0
0.045977 0.904762 0
0.045977 0.952381 0
0.045977 1 0
0.091954 0 0
0.091954 0.047619 0
0.091954 0.0952381 0
0.091954 0.142857 0
0.091954 0.190476 0
0.091954 0.238095 0
0.091954 0.285714 0
0.091954 0.333333 0
0.091954 0.380952 0
0.091954 0.428571 0
0.091954 0.47619 0
0.091954 0.52381 0
0.091954 0.571429 0
0.091954 0.619048 0
0.091954 0.666667 0
0.091954 0.714286 0
0.091954 0.761905 0
0.091954 0.809524 0
0.091954 0.857143 0
0.091954 0.904762 0
0.091954 0.952381 0
0.091954 1 0
0.137931 0 0
0.137931 0.047619 0
0.137931 0.0952381 0
0.137931 0.142857 0
0.137931 0.190476 0
0.137931 0.238095 0
0.137931 0.285714 0
0.137931 0.333333 0
0.137931 0.380952 0
0.137931 0.428571 0
0.137931 0.47619 0
0.137931 0.52381 0
0.137931 0.571429 0
0.137931 0.619048 0
0.137931 0.666667 0
0.137931 0.714286 0
0.137931 0.761905 0
0.137931 0.809524 0
0.137931 0.857143 0
0.137931 0.904762 0
0.137931 0.952381 0
0.137931 1 0
0.183908 0 0
0.183908 0.047619 0
0.183908 0.0952381 0
0.183908 0.142857 0
0.183908 0.190476 0
0.183908 0.238095 0
0.183908 0.285714 0
0.183908 0.333333 0
0.183908 0.380952 0
0.183908 0.428571 0
0.183908 0.47619 0
0.183908 0.52381 0
0.183908 0.571429 0
0.183908 0.619048 0
0.183908 0.666667 0
0.183908 0.714286 0
0.183908 0.761905 0
0.183908 0.809524 0
0.183908 0.857143 0
0.183908 0.904762 0
0.183908 0.952381 0
0.183908 1 0
0.229885 0 0
0.229885 0.047619 0
0.229885 0.0952381 0
0.229885 0.142857 0
0.229885 0.190476 0
0.229885 0.238095 0
0.229885 0.285714 0
0.229885 0.333333 0
0.229885 0.380952 0
0.229885 0.428571 0
0.229885 0.47619 0
0.229885 0.52381 0
0.229885 0.571429 0
0.229885 0.619048 0
0.229885 0.666667 0
0.229885 0.714286 0
0.229885 0.761905 0
0.229885 0.809524 0
0.229885 0.857143 0
0.229885 0.904762 0
0.229885 0.952381 0
0.229885 1 0
0.275862 0 0
0.275862 0.047619 0
0.275862 0.0952381 0
0.275862 0.142857 0
0.275862 0.190476 0
0.275862 0.238095 0
0.275862 0.285714 0
0.275862 0.333333 0
0.275862 0.380952 0
0.275862 0.428571 0
0.275862 0.47619 0
0.275862 0.52381 0
0.275862 0.571429 0
0.275862 0.619048 0
0.275862 0.666667 0
0.275862 0.714286 0
0.275862 0.761905 0
0.275862 0.809524 0
0.275862 0.857143 0
0.275862 0.904762 0
0.275862 0.952381 0
0.275862 1 0
0.321839 0 0
0.321839 0.047619 0
0.321839 0.0952381 0
0.321839 0.142857 0
0.321839 0.190476 0
0.321839 0.238095 0
0.321839 0.285714 0
0.321839 0.333333 0
0.321839 0.380952 0
0.321839 0.428571 0
0.321839 0.47619 0
0.321839 0.52381 0
0.321839 0.571429 0
0.321839 0.619048 0
0.321839 0.666667 0
0.321839 0.714286 0
0.321839 0.761905 0
0.321839 0.809524 0
0.321839 0.857143 0
0.321839 0.904762 0
0.321839 0.952381 0
0.321839 1 0
0.367816 0 0
0.367816 0.047619 0
0.367816 0.0952381 0
0.367816 0.142857 0
0.367816 0.190476 0
0.367816 0.238095 0
0.367816 0.285714 0
0.367816 0.333333 0
0.367816 0.380952 0
0.367816 0.428571 0
0.367816 0.47619 0
0.367816 0.52381 0
0.367816 0.571429 0
0.367816 0.619048 0
0.367816 0.666667 0
0.367816 0.714286 0
0.367816 0.761905 0
0.367816 0.809524 0
0.367816 0.857143 0
0.367816 0.904762 0
0.367816 0.952381 0
0.367816 1 0
0.413793 0 0
0.413793 0.047619 0
0.413793 0.0952381 0
0.413793 0.142857 0
0.413793 0.190476 0
0.413793 0.238095 0
0.413793 0.285714 0
0.413793 0.333333 0
0.413793 0.380952 0
0.413793 0.428571 0
0.413793 0.47619 0
0.413793 0.52381 0
0.413793 0.571429 0
0.413793 0.619048 0
0.413793 0.666667 0
0.413793 0.714286 0
0.413793 0.761905 0
0.413793 0.809524 0
0.413793 0.857143 0
0.413793 0.904762 0
0.413793 0.952381 0
0.413793 1 0
0.45977 0 0
0.45977 0.047619 0
0.45977 0.0952381 0
0.45977 0.142857 0
0.45977 0.190476 0
0.45977 0.238095 0
0.45977 0.285714 0
0.45977 0.333333 0
0.45977 0.380952 0
0.45977 0.428571 0
0.45977 0.47619 0
0.45977 0.52381 0
0.45977 0.571429 0
0.45977 0.619048 0
0.45977 0.666667 0
0.45977 0.714286 0
0.45977 0.761905 0
0.45977 0.809524 0
0.45977 0.857143 0
0.45977 0.904762 0
0.45977 0.952381 0
0.45977 1 0
0.505747 0 0
0.505747 0.047619 0
0.505747 0.0952381 0
0.505747 0.142857 0
0.505747 0.190476 0
0.505747 0.238095 0
0.505747 0.285714 0
0.505747 0.333333 0
0.505747 0.380952 0
0.505747 0.428571 0
0.505747 0.47619 0
0.505747 0.52381 0
0.505747 0.571429 0
0.505747 0.619048 0
0.505747 0.666667 0
0.505747 0.714286 0
0.505747 0.761905 0
0.505747 0.809524 0
0.505747 0.857143 0
0.505747 0.904762 0
0.505747 0.952381 0
0.505747 1 0
0.551724 0 0
0.551724 0.047619 0
0.551724 0.0952381 0
0.551724 0.142857 0
0.551724 0.190476 0
0.551724 0.238095 0
0.551724 0.285714 0
0.551724 0.333333 0
0.551724 0.380952 0
0.551724 0.428571 0
0.551724 0.47619 0
0.551724 0.52381 0
0.551724 0.571429 0
0.551724 0.619048 0
0.551724 0.666667 0
0.551724 0.714286 0
0.551724 0.761905 0
0.551724 0.809524 0
0.551724 0.857143 0
0.551724 0.904762 0
0.551724 0.952381 0
0.551724 1 0
0.597701 0 0
0.597701 0.047619 0
0.597701 0.0952381 0
0.597701 0.142857 0
0.597701 0.190476 0
0.597701 0.238095 0
0.597701 0.285714 0
0.597701 0.333333 0
0.597701 0.380952 0
0.597701 0.428571 0
0.597701 0.47619 0
0.597701 0.52381 0
0.597701 0.571429 0
0.597701 0.619048 0
0.597701 0.666667 0
0.597701 0.714286 0
0.597701 0.761905 0
0.597701 0.809524 0
0.597701 0.857143 0
0.597701 0.904762 0
0.597701 0.952381 0
0.597701 1 0
0.643678 0 0
0.643678 0.047619 0
0.643678 0.0952381 0
0.643678 0.142857 0
0.643678 0.190476 0
0.643678 0.238095 0
0.643678 0.285714 0
0.643678 0.333333 0
0.643678 0.380952 0
0.643678 0.428571 0
0.643678 0.47619 0
0.643678 0.52381 0
0.643678 0.571429 0
0.643678 0.619048 0
0.643678 0.666667 0
0.643678 0.714286 0
0.643678 0.761905 0
0.643678 0.809524 0
0.643678 0.857143 0
0.643678 0.904762 0
0.643678 0.952381 0
0.643678 1 0
0.689655 0 0
0.689655 0.047619 0
0.689655 0.0952381 0
0.689655 0.142857 0
0.689655 0.190476 0
0.689655 0.238095 0
0.689655 0.285714 0
0.689655 0.333333 0
0.689655 0.380952 0
0.689655 0.428571 0
0.689655 0.47619 0
0.689655 0.52381 0
0.689655 0.571429 0
0.689655 0.619048 0
0.689655 0.666667 0
0.689655 0.714286 0
0.689655 0.761905 0
0.689655 0.809524 0
0.689655 0.857143 0
0.689655 0.904762 0
0.689655 0.952381 0
0.689655 1 0
0.735632 0 0
0.735632 0.047619 0
0.735632 0.0952381 0
0.735632 0.142857 0
0.735632 0.190476 0
0.735632 0.238095 0
0.735632 0.285714 0
0.735632 0.333333 0
0.735632 0.380952 0
0.735632 0.428571 0
0.735632 0.47619 0
0.735632 0.52381 0
0.735632 0.571429 0
0.735632 0.619048 0
0.735632 0.666667 0
0.735632 0.714286 0
0.735632 0.761905 0
0.735632 0.809524 0
0.735632 0.857143 0
0.735632 0.904762 0
0.735632 0.952381 0
0.735632 1 0
0.781609 0 0
0.781609 0.047619 0
0.781609 0.0952381 0
0.781609 0.142857 0
0.781609 0.190476 0
0.781609 0.238095 0
0.781609 0.285714 0
0.781609 0.333333 0
0.781609 0.380952 0
0.781609 0.428571 0
0.781609 0.47619 0
0.781609 0.52381 0
0.781609 0.571429 0
0.781609 0.619048 0
0.781609 0.666667 0
0.781609 0.714286 0
0.781609 0.761905 0
0.781609 0.809524 0
0.781609 0.857143 0
0.781609 0.904762 0
0.781609 0.952381 0
0.781609 1 0
0.827586 0 0
0.827586 0.047619 0
0.827586 0.0952381 0
0.827586 0.142857 0
0.827586 0.190476 0
0.827586 0.238095 0
0.827586 0.285714 0
0.827586 0.333333 0
0.827586 0.380952 0
0.827586 0.428571 0
0.827586 0.47619 0
0.827586 0.52381 0
0.827586 0.571429 0
0.827586 0.619048 0
0.827586 0.666667 0
0.827586 0.714286 0
0.827586 0.761905 0
0.827586 0.809524 0
0.827586 0.857143 0
0.827586 0.904762 0
0.827586 0.952381 0
0.827586 1 0
0.873563 0 0
0.873563 0.047619 0
0.873563 0.0952381 0
0.873563 0.142857 0
0.873563 0.190476 0
0.873563 0.238095 0
0.873563 0.285714 0
0.873563 0.333333 0
0.873563 0.380952 0
0.873563 0.428571 0
0.873563 0.47619 0
0.873563 0.52381 0
0.873563 0.571429 0
0.873563 0.619048 0
0.873563 0.666667 0
0.873563 0.714286 0
0.873563 0.761905 0
0.873563 0.809524 0
0.873563 0.857143 0
0.873563 0.904762 0
0.873563 0.952381 0
0.873563 1 0
0.91954 0 0
0.91954 0.047619 0
0.91954 0.0952381 0
0.91954 0.142857 0
0.91954 0.190476 0
0.91954 0.238095 0
0.91954 0.285714 0
0.91954 0.333333 0
0.91954 0.380952 0
0.91954 0.428571 0
0.91954 0.47619 0
0.91954 0.52381 0
0.91954 0.571429 0
0.91954 0.619048 0
0.91954 0.666667 0
0.91954 0.714286 0
0.91954 0.761905 0
0.91954 0.809524 0
0.91954 0.857143 0
0.91954 0.904762 0
0.91954 0.952381 0
0.91954 1 0
0.965517 0 0
0.965517 0.047619 0
0.965517 0.0952381 0
0.965517 0.142857 0
0.965517 0.190476 0
0.965517 0.238095 0
0.965517 0.285714 0
0.965517 0.333333 0
0.965517 0.380952 0
0.965517 0.428571 0
0.965517 0.47619 0
0.965517 0.52381 0
0.965517 0.571429 0
0.965517 0.619048 0
0.965517 0.666667 0
0.965517 0.714286 0
0.965517 0.761905 0
0.965517 0.809524 0
0.965517 0.857143 0
0.965517 0.904762 0
0.965517 0.952381 0
0.965517 1 0
1.01149 0 0
1.01149 0.047619 0
1.01149 0.0952381 0
1.01149 0.142857 0
1.01149 0.190476 0
1.01149 0.238095 0
1.01149 0.285714 0
1.01149 0.333333 0
1.01149 0.380952 0
1.01149 0.428571 0
1.01149 0.47619 0
1.01149 0.52381 0
1.01149 0.571429 0
1.01149 0.619048 0
1.01149 0.666667 0
1.01149 0.714286 0
1.01149 0.761905 0
1.01149 0.809524 0
1.01149 0.857143 0
1.01149 0.904762 0
1.01149 0.952381 0
1.01149 1 0
1.05747 0 0
1.05747 0.047619 0
1.05747 0.0952381 0
1.05747 0.142857 0
1.05747 0.190476 0
1.05747 0.238095 0
1.05747 0.285714 0
1.05747 0.333333 0
1.05747 0.380952 0
1.05747 0.428571 0
1.05747 0.47619 0
1.05747 0.52381 0
1.05747 0.571429 0
1.05747 0.619048 0
1.05747 0.666667 0
1.05747 0.714286 0
1.05747 0.761905 0
1.05747 0.809524 0
1.05747 0.857143 0
1.05747 0.904762 0
1.05747 0.952381 0
1.05747 1 0
1.10345 0 0
1.10345 0.047619 0
1.10345 0.0952381 0
1.10345 0.142857 0
1.10345 0.190476 0
1.10345 0.238095 0
1.10345 0.285714 0
1.10345 0.333333 0
1.10345 0.380952 0
1.10345 0.428571 0
1.10345 0.47619 0
1.10345 0.52381 0
1.10345 0.571429 0
[...]
POINT_DATA 1913
VECTORS velocity[m/s] double
-0 0.204616 0
0 0.20466 0
0 0.201063 0
0 0.170892 0
0 0.140421 0
0 0.112898 0
0 0.0882499 0
0 0.065916 0
0 0.0452797 0
0 0.0257505 0
0 0.00677043 0
0 -0.0122081 0
0 -0.0317585 0
0 -0.0525287 0
0 -0.0753051 0
0 -0.101102 0
0 -0.131291 0
0 -0.167775 0
0 -0.212881 0
0 -0.265265 0
0 -0.285516 0
-0.87008 0.180323 0
0.87007 0.00159045 0
1.07116 0.180365 0
1.0969 0.199564 0
1.09729 0.172889 0
1.09454 0.141238 0
1.09186 0.112795 0
1.08971 0.0878159 0
1.08814 0.0654522 0
1.08712 0.044913 0
1.08661 0.0255361 0
1.0866 0.00673807 0
1.08712 -0.0120338 0
1.08824 -0.0313491 0
1.09009 -0.0518487 0
1.09289 -0.0743186 0
1.09698 -0.0998016 0
1.10289 -0.129766 0
1.11102 -0.166149 0
1.11784 -0.20959 0
1.08661 -0.247834 0
0.791239 -0.216986 0
-0.697587 0.139544 0
0.697539 0.00125033 0
1.05268 0.13959 0
1.12271 0.178809 0
1.1279 0.16427 0
1.12205 0.136392 0
1.11603 0.109082 0
1.11135 0.0848269 0
1.10802 0.063194 0
1.10587 0.0433941 0
1.1048 0.0247478 0
1.10477 0.00668605 0
1.10582 -0.0113065 0
1.10808 -0.0297436 0
1.11183 -0.0491911 0
1.11754 -0.0703304 0
1.12597 -0.0940374 0
1.13807 -0.121386 0
1.15302 -0.15296 0
1.15482 -0.184887 0
1.05688 -0.195881 0
0.581791 -0.132946 0
-0.564137 0.0996842 0
0.564046 0.000892781 0
1.01486 0.0997477 0
1.13679 0.147383 0
1.15486 0.145422 0
1.14847 0.124739 0
1.1395 0.101062 0
1.13229 0.079021 0
1.12718 0.0590745 0
1.12392 0.040716 0
1.12229 0.0233786 0
1.12219 0.00657858 0
1.12367 -0.0101081 0
1.12691 -0.0270865 0
1.13229 -0.0447793 0
1.14048 -0.0636593 0
1.15242 -0.0842421 0
1.16861 -0.10684 0
1.1839 -0.13026 0
1.16549 -0.147406 0
0.996169 -0.137168 0
0.453486 -0.0721706 0
-0.468828 0.0663029 0
0.468676 0.000593557 0
0.968923 0.0663926 0
1.13874 0.112708 0
1.17488 0.119794 0
1.17138 0.107212 0
1.16083 0.0889582 0
1.15159 0.0705335 0
1.14496 0.0532257 0
1.14071 0.0369779 0
1.13856 0.0214674 0
1.13835 0.0063758 0
1.14011 -0.0085769 0
1.14404 -0.0236431 0
1.15057 -0.039056 0
1.16041 -0.0550169 0
1.17429 -0.0716015 0
1.19128 -0.0883487 0
1.20051 -0.102861 0
1.15566 -0.107547 0
0.933468 -0.0874035 0
0.38386 -0.036172 0
-0.405461 0.0405919 0
0.405223 0.000363441 0
0.924256 0.0406979 0
1.13195 0.0796893 0
1.18708 0.0916164 0
1.18905 0.0862777 0
1.17866 0.0740674 0
1.16835 0.0600899 0
1.16069 0.0460829 0
1.15573 0.0324326 0
1.15318 0.0191235 0
1.15284 0.00605339 0
1.1547 -0.00688151 0
1.15897 -0.0197607 0
1.16603 -0.0326158 0
1.17647 -0.0453788 0
1.19051 -0.057738 0
1.20534 -0.0687121 0
1.20508 -0.0755756 0
1.13626 -0.0722549 0
0.884059 -0.0509474 0
0.348991 -0.016544 0
-0.366697 0.0223898 0
0.366357 0.000200644 0
0.886661 0.0224892 0
1.12048 0.051668 0
1.19229 0.0649145 0
1.20089 0.0649942 0
1.19221 0.0583202 0
1.18193 0.048837 0
1.17392 0.0383188 0
1.16863 0.0274582 0
1.16584 0.0165185 0
1.16537 0.00561236 0
1.16719 -0.00518931 0
1.17143 -0.0158026 0
1.1784 -0.0260826 0
1.18845 -0.03575 0
1.20116 -0.0442434 0
1.21202 -0.0503923 0
1.20193 -0.0518303 0
1.11575 -0.0447422 0
0.850897 -0.0268472 0
0.333073 -0.00637436 0
-0.34535 0.010741 0
0.344915 9.64371e-05 0
0.858541 0.0108149 0
1.10775 0.0304265 0
1.19226 0.0425985 0
1.20739 0.0459721 0
1.20141 0.043573 0
1.19213 0.0379637 0
1.18445 0.0306582 0
1.17924 0.0224709 0
1.17642 0.0138512 0
1.17585 0.00507776 0
1.17748 -0.00363751 0
1.1814 -0.0120827 0
1.18778 -0.0199869 0
1.1967 -0.0269461 0
1.20715 -0.0323053 0
1.21346 -0.0349749 0
1.19514 -0.033271 0
1.09852 -0.025424 0
0.831185 -0.0123161 0
0.326973 -0.0014413 0
-0.335149 0.00411586 0
0.334644 3.71089e-05 0
0.839657 0.00415861 0
1.09604 0.016068 0
1.18905 0.0259377 0
1.20975 0.0307141 0
1.20688 0.0310777 0
1.19923 0.0283654 0
1.1924 0.0236903 0
1.18761 0.0178289 0
1.18494 0.0113045 0
1.18431 0.00448932 0
1.18568 -0.00231596 0
1.18908 -0.00882025 0
1.19455 -0.0146865 0
1.20192 -0.0194708 0
1.20978 -0.0225496 0
1.21186 -0.0230622 0
1.18762 -0.0200226 0
1.08592 -0.0130718 0
0.820738 -0.00435676 0
0.325634 0.000686782 0
-0.331286 0.000841458 0
0.330741 7.73062e-06 0
0.828209 0.000858611 0
1.08656 0.00742043 0
1.18449 0.0147073 0
1.20945 0.019547 0
1.20954 0.0213287 0
1.20379 0.0205014 0
1.19811 0.0177694 0
1.19395 0.0137719 0
1.19156 0.00901342 0
1.19092 0.00388961 0
1.19201 -0.00126429 0
1.19479 -0.0061271 0
1.19922 -0.0103487 0
1.20494 -0.0135093 0
1.21032 -0.0150889 0
1.20898 -0.0144923 0
1.18096 -0.0112762 0
1.07756 -0.00584179 0
0.815919 -0.000467611 0
0.326348 0.00139643 0
-0.330554 -0.000491761 0
0.329993 -4.27304e-06 0
0.821922 -0.000490614 0
1.07958 0.00279241 0
1.17986 0.00780208 0
1.20777 0.0119768 0
1.21039 0.0142152 0
1.20647 0.0144373 0
1.20201 0.0130123 0
1.19859 0.0104079 0
1.19655 0.00705278 0
1.19595 0.00331472 0
1.19675 -0.000480417 0
1.19891 -0.00402057 0
1.20231 -0.00698067 0
1.20652 -0.00900186 0
1.20979 -0.00969054 0
1.20592 -0.0086826 0
1.17576 -0.00588045 0
1.07242 -0.00196944 0
0.814169 0.00114198 0
0.327745 0.00145606 0
-0.331096 -0.000855249 0
0.330534 -7.57886e-06 0
0.8188 -0.000861636 0
1.07479 0.000618067 0
1.17588 0.0038893 0
1.20566 0.00715259 0
1.21022 0.00929086 0
1.20789 0.00998053 0
1.20457 0.00935976 0
1.20187 0.0077365 0
1.20021 0.00544274 0
1.19965 0.00278954 0
1.20021 6.54934e-05 0
1.20181 -0.00245186 0
1.20431 -0.00448381 0
1.20723 -0.00574517 0
1.20886 -0.00595971 0
1.20326 -0.00493219 0
1.17203 -0.00274444 0
1.06946 -9.25497e-05 0
0.813912 0.00160506 0
0.329198 0.00126597 0
-0.331982 -0.000814481 0
0.331426 -7.24687e-06 0
0.817416 -0.000822962 0
1.07167 -0.000241317 0
1.17277 0.00182596 0
1.20364 0.00421908 0
1.20959 0.00601267 0
1.20853 0.00682311 0
1.20618 0.00665373 0
1.20413 0.00568756 0
1.20281 0.00416365 0
1.20233 0.00232731 0
1.20268 0.000416917 0
1.20382 -0.00133653 0
1.20557 -0.00270801 0
1.20748 -0.00348295 0
1.20791 -0.00347865 0
1.2012 -0.00260752 0
1.16951 -0.00101936 0
1.06786 0.000698669 0
0.814285 0.00156324 0
0.330465 0.00101573 0
-0.332827 -0.000650324 0
0.332279 -5.79631e-06 0
0.816898 -0.000658217 0
1.06972 -0.000481897 0
1.1705 0.000804798 0
1.20195 0.00249099 0
1.20885 0.00388757 0
1.20874 0.00464486 0
1.20716 0.00470254 0
1.20565 0.00415782 0
1.20463 0.00317308 0
1.20421 0.00193163 0
1.20442 0.000619975 0
1.20518 -0.000579363 0
1.20636 -0.00149302 0
1.20751 -0.00196603 0
1.20712 -0.00188303 0
1.1997 -0.0012169 0
1.1679 -0.000123634 0
1.06707 0.000947633 0
0.814856 0.00134244 0
0.331489 0.000782984 0
-0.333512 -0.000479605 0
0.332972 -4.2785e-06 0
0.81677 -0.000485986 0
1.06852 -0.000472719 0
1.16892 0.00032816 0
1.20064 0.00149039 0
1.20816 0.002531 0
1.20873 0.00316846 0
1.20772 0.00332275 0
1.20664 0.00303818 0
1.20587 0.00242003 0
1.20552 0.00159957 0
1.20561 0.000716579 0
1.20611 -9.06012e-05 0
1.20686 -0.00069326 0
1.20748 -0.000982858 0
1.20651 -0.000889059 0
1.19869 -0.000414186 0
1.16691 0.000307023 0
1.06673 0.000950274 0
0.815438 0.00108952 0
0.332287 0.000591516 0
-0.334032 -0.000339272 0
0.333498 -3.02812e-06 0
0.816798 -0.000344089 0
1.06779 -0.000385276 0
1.16784 0.000119203 0
1.19968 0.0009136 0
1.20759 0.00167032 0
1.20862 0.00217788 0
1.20804 0.00235937 0
1.20727 0.00222964 0
1.2067 0.00185439 0
1.20641 0.00132451 0
1.20643 0.000741219 0
1.20673 0.000205858 0
1.20718 -0.000188793 0
1.20742 -0.000368423 0
1.2061 -0.000291207 0
1.19803 2.90378e-05 0
1.16632 0.000486546 0
1.06664 0.000855265 0
0.815959 0.000860629 0
0.332898 0.000442437 0
-0.334416 -0.000233723 0
0.333886 -2.08675e-06 0
0.816877 -0.000237239 0
1.06734 -0.000288614 0
1.16711 3.55605e-05 0
1.19898 0.000579386 0
1.20714 0.0011237 0
1.20848 0.00151594 0
1.2082 0.00169135 0
1.20767 0.00165019 0
1.20725 0.00143211 0
1.20701 0.00109841 0
1.20699 0.000720292 0
1.20715 0.00036999 0
1.20739 0.00011279 0
1.20739 -1.28132e-06 0
1.20583 5.22363e-05 0
1.19763 0.00025718 0
1.16601 0.000535124 0
1.06667 0.00073182 0
0.816402 0.000670953 0
0.333364 0.000329216 0
-0.334696 -0.000157123 0
0.334169 -1.40328e-06 0
0.816965 -0.000159652 0
1.06706 -0.000205293 0
1.16662 8.17538e-06 0
1.1985 0.000383545 0
1.2068 0.00077443 0
1.20835 0.00107316 0
1.20828 0.00122895 0
1.20792 0.00123588 0
1.20761 0.00111714 0
1.20742 0.00091315 0
1.20737 0.000672868 0
1.20743 0.000446574 0
1.20754 0.000279312 0
1.20737 0.000204341 0
1.20566 0.000235817 0
1.1974 0.000359199 0
1.16585 0.000518405 0
1.06677 0.00060955 0
0.816769 0.000519601 0
0.33372 0.000244056 0
-0.334901 -0.000102197 0
0.334377 -9.13115e-07 0
0.817045 -0.000104006 0
1.06689 -0.000139516 0
1.1663 4.84506e-06 0
1.19816 0.000267151 0
1.20654 0.000549104 0
1.20823 0.000775478 0
1.20831 0.000908001 0
1.20807 0.000938919 0
1.20784 0.000881333 0
1.20768 0.000761388 0
1.20762 0.000612052 0
1.20763 0.000467648 0
1.20765 0.000358741 0
1.20738 0.000307216 0
1.20558 0.000321219 0
1.19728 0.000389082 0
1.1658 0.000471668 0
1.06689 0.000499615 0
0.817072 0.000400733 0
0.333992 0.000180139 0
-0.335052 -6.28981e-05 0
0.334529 -5.624e-07 0
0.817115 -6.41881e-05 0
1.06679 -8.94745e-05 0
1.16608 1.08888e-05 0
1.19792 0.000196868 0
1.20636 0.000401915 0
1.20814 0.0005736 0
1.20831 0.000683707 0
1.20816 0.000724655 0
1.20799 0.000703495 0
1.20786 0.000636815 0
1.20779 0.000546422 0
1.20777 0.000455338 0
1.20773 0.000383999 0
1.2074 0.000346678 0
1.20555 0.000348044 0
1.19724 0.000379316 0
1.16581 0.000413652 0
1.06702 0.000405087 0
0.81732 0.000307932 0
0.334201 0.000132117 0
-0.335163 -3.47788e-05 0
0.334641 -3.11454e-07 0
0.817173 -3.56943e-05 0
1.06673 -5.20788e-05 0
1.16593 1.9695e-05 0
1.19776 0.000153622 0
1.20623 0.00030427 0
1.20807 0.000435023 0
1.20831 0.000525299 0
1.20822 0.00056846 0
1.20809 0.000568 0
1.20799 0.000534226 0
1.20792 0.00048131 0
1.20787 0.000424445 0
1.2078 0.000377109 0
1.20744 0.000348533 0
1.20556 0.000341378 0
1.19724 0.000349301 0
1.16585 0.000354147 0
1.06715 0.000325716 0
0.817524 0.000235619 0
0.334362 9.59705e-05 0
-0.335246 -1.46959e-05 0
0.334724 -1.32224e-07 0
0.817222 -1.53385e-05 0
1.06669 -2.44695e-05 0
1.16584 2.83419e-05 0
1.19764 0.000126321 0
1.20614 0.00023824 0
1.20802 0.000338406 0
1.2083 0.000411858 0
1.20825 0.000453077 0
1.20816 0.000463516 0
1.20807 0.000449412 0
1.208 0.000419806 0
1.20795 0.000384563 0
1.20786 0.000352455 0
1.20747 0.000329394 0
1.20558 0.000316889 0
1.19727 0.000310487 0
1.16591 0.00029807 0
1.06727 0.000260032 0
0.817691 0.000179309 0
0.334488 6.8729e-05 0
-0.335307 -4.39419e-07 0
0.334786 -4.98213e-09 0
0.817263 -8.80555e-07 0
1.06667 -4.34371e-06 0
1.16577 3.56198e-05 0
1.19757 0.000108427 0
1.20607 0.000192514 0
1.20798 0.000269749 0
1.20829 0.000329239 0
1.20827 0.000366518 0
1.2082 0.000381895 0
1.20813 0.000379012 0
1.20807 0.000363514 0
1.20802 0.000341697 0
1.20792 0.000319187 0
1.20752 0.000299735 0
1.20562 0.000284183 0
1.19731 0.000269484 0
1.16598 0.000247663 0
1.06738 0.000206218 0
0.81783 0.000135493 0
0.334586 4.81972e-05 0
-0.335353 9.56019e-06 0
0.334833 8.42792e-08 0
0.817297 9.26946e-06 0
1.06666 1.00785e-05 0
1.16573 4.11327e-05 0
1.19752 9.60544e-05 0
1.20603 0.000159924 0
1.20795 0.000219863 0
1.20829 0.000267905 0
1.20829 0.000300482 0
1.20823 0.000317296 0
1.20817 0.000320355 0
1.20812 0.00031309 0
1.20807 0.00029944 0
1.20797 0.000282956 0
1.20756 0.000265987 0
1.20566 0.000248999 0
1.19736 0.000229953 0
1.16605 0.000203697 0
1.06748 0.000162476 0
0.817944 0.000101448 0
0.334663 3.27453e-05 0
-0.335388 1.6433e-05 0
0.334868 1.45644e-07 0
0.817325 1.62553e-05 0
1.06666 2.01623e-05 0
1.16571 4.48762e-05 0
1.19748 8.68961e-05 0
1.206 0.000135909 0
1.20793 0.000182706 0
1.20828 0.000221426 0
1.2083 0.000249229 0
1.20826 0.000265525 0
1.20821 0.000271316 0
1.20816 0.000268607 0
1.20811 0.000259804 0
1.20801 0.000247105 0
1.20761 0.000231958 0
1.20571 0.000214621 0
1.19742 0.000193763 0
1.16612 0.000166144 0
1.06757 0.000127158 0
0.81804 7.50541e-05 0
0.334724 2.11544e-05 0
-0.335414 2.10028e-05 0
0.334894 1.86464e-07 0
0.817349 2.09099e-05 0
1.06667 2.69562e-05 0
1.1657 4.70267e-05 0
1.19746 7.95945e-05 0
1.20598 0.000117561 0
1.20792 0.000154297 0
1.20828 0.000185454 0
1.20831 0.000208776 0
1.20828 0.000223559 0
1.20824 0.000230198 0
1.2082 0.000229802 0
1.20815 0.00022379 0
1.20805 0.000213488 0
1.20765 0.000199776 0
1.20576 0.000182796 0
1.19747 0.000161714 0
1.16619 0.000134565 0
1.06765 9.88173e-05 0
0.81812 5.46592e-05 0
0.334772 1.25067e-05 0
-0.335434 2.38755e-05 0
0.334914 2.12143e-07 0
0.817371 2.3845e-05 0
1.06668 3.12678e-05 0
1.16569 4.78329e-05 0
1.19745 7.33669e-05 0
1.20597 0.000103025 0
1.20792 0.000132001 0
1.20829 0.000157038 0
1.20833 0.000176342 0
1.2083 0.000189193 0
1.20827 0.000195639 0
1.20823 0.000196232 0
1.20819 0.000191767 0
1.20809 0.000183021 0
1.2077 0.000170514 0
1.20581 0.000154332 0
1.19753 0.000133977 0
1.16625 0.000108332 0
1.06771 7.621e-05 0
0.818188 3.89692e-05 0
0.334811 6.10685e-06 0
-0.335449 2.54986e-05 0
0.33493 2.26673e-07 0
0.817389 2.55121e-05 0
1.06669 3.37187e-05 0
1.16569 4.75565e-05 0
1.19745 6.77754e-05 0
1.20597 9.1115e-05 0
1.20792 0.000114065 0
1.2083 0.00013416 0
1.20834 0.000149968 0
1.20832 0.000160808 0
1.20829 0.000166538 0
1.20826 0.000167376 0
1.20822 0.000163732 0
1.20813 0.000156039 0
1.20774 0.000144598 0
1.20585 0.000129466 0
1.19758 0.000110376 0
1.16631 8.67596e-05 0
1.06778 5.82844e-05 0
0.818246 2.69691e-05 0
0.334843 1.42627e-06 0
-0.335461 2.62027e-05 0
0.334942 2.33005e-07 0
0.817406 2.62448e-05 0
1.0667 3.47864e-05 0
1.1657 4.64423e-05 0
1.19745 6.25861e-05 0
1.20597 8.10726e-05 0
1.20793 9.93145e-05 0
1.20831 0.000115426 0
1.20836 0.000128257 0
1.20834 0.000137194 0
1.20832 0.000141998 0
1.20829 0.000142697 0
1.20826 0.000139469 0
1.20817 0.000132537 0
1.20778 0.000122071 0
1.2059 0.000108116 0
1.19762 9.05569e-05 0
1.16636 6.91761e-05 0
1.06783 4.41623e-05 0
0.818295 1.78619e-05 0
0.334869 -1.93822e-06 0
-0.335471 2.62322e-05 0
0.334952 2.33318e-07 0
0.817421 2.62893e-05 0
1.06671 3.48357e-05 0
1.16571 4.47045e-05 0
1.19746 5.76826e-05 0
1.20598 7.24083e-05 0
1.20793 8.69553e-05 0
1.20832 9.98624e-05 0
1.20837 0.000110203 0
1.20836 0.000117433 0
1.20834 0.000121284 0
1.20832 0.000121676 0
1.20829 0.000118655 0
1.2082 0.000112319 0
1.20782 0.000102761 0
1.20594 9.00261e-05 0
1.19767 7.40928e-05 0
1.16641 5.49607e-05 0
1.06788 3.3118e-05 0
0.818337 1.10226e-05 0
0.334891 -4.29446e-06 0
-0.335479 2.57668e-05 0
0.334961 2.29216e-07 0
0.817435 2.58281e-05 0
1.06672 3.4144e-05 0
1.16572 4.25224e-05 0
1.19747 5.30133e-05 0
1.20599 6.48038e-05 0
1.20794 7.64415e-05 0
1.20833 8.67785e-05 0
1.20839 9.50624e-05 0
1.20838 0.000100823 0
1.20836 0.000103789 0
1.20834 0.000103832 0
1.20832 0.000100924 0
1.20823 9.50943e-05 0
1.20785 8.63923e-05 0
1.20597 7.48627e-05 0
1.19771 6.05446e-05 0
1.16645 4.35622e-05 0
1.06792 2.45568e-05 0
0.818374 5.96114e-06 0
0.334909 -5.87752e-06 0
-0.335486 2.49394e-05 0
0.334967 2.21884e-07 0
0.817448 2.49967e-05 0
1.06673 3.2922e-05 0
1.16573 4.00415e-05 0
1.19748 4.85615e-05 0
1.206 5.80491e-05 0
1.20796 6.73924e-05 0
1.20834 7.56759e-05 0
1.2084 8.22844e-05 0
1.2084 8.68155e-05 0
1.20838 8.90139e-05 0
1.20837 8.87337e-05 0
1.20834 8.59112e-05 0
1.20826 8.0539e-05 0
1.20788 7.26437e-05 0
1.20601 6.22716e-05 0
1.19775 4.94953e-05 0
1.16649 3.45037e-05 0
1.06796 1.79953e-05 0
0.818407 2.29429e-06 0
0.334924 -6.86685e-06 0
-0.335492 2.38489e-05 0
0.334973 2.12204e-07 0
0.81746 2.38975e-05 0
1.06675 3.133e-05 0
1.16574 3.73782e-05 0
1.19749 4.4327e-05 0
1.20601 5.20027e-05 0
1.20797 5.95374e-05 0
1.20836 6.61889e-05 0
1.20842 7.14496e-05 0
1.20842 7.49775e-05 0
1.2084 7.65423e-05 0
1.20839 7.59984e-05 0
1.20837 7.32685e-05 0
1.20829 6.83281e-05 0
1.20791 6.11925e-05 0
1.20604 5.19094e-05 0
1.19778 4.05673e-05 0
1.16652 2.73805e-05 0
1.068 1.30436e-05 0
0.818435 -2.76897e-07 0
0.334937 -7.39924e-06 0
-0.335496 2.25709e-05 0
0.334978 2.00851e-07 0
0.817471 2.26102e-05 0
1.06676 2.94909e-05 0
1.16575 3.46246e-05 0
1.1975 4.03174e-05 0
1.20602 4.65671e-05 0
1.20798 5.26804e-05 0
1.20837 5.80441e-05 0
1.20843 6.22357e-05 0
1.20843 6.49654e-05 0
1.20842 6.60303e-05 0
1.20841 6.5295e-05 0
1.20839 6.26807e-05 0
1.20832 5.8157e-05 0
1.20794 5.17346e-05 0
1.20607 4.34612e-05 0
1.19781 3.34299e-05 0
1.16656 2.18547e-05 0
1.06803 9.38871e-06 0
0.81846 -1.98498e-06 0
0.334948 -7.57878e-06 0
-0.3355 2.11652e-05 0
0.334982 1.88358e-07 0
0.817482 2.11988e-05 0
1.06677 2.74999e-05 0
1.16576 3.18529e-05 0
1.19751 3.65424e-05 0
1.20603 4.16734e-05 0
1.20799 4.6676e-05 0
1.20838 5.10338e-05 0
1.20845 5.43914e-05 0
1.20845 5.6503e-05 0
1.20844 5.71928e-05 0
1.20843 5.63394e-05 0
1.20841 5.38689e-05 0
1.20834 4.97512e-05 0
1.20796 4.39955e-05 0
1.2061 3.66482e-05 0
1.19784 2.77996e-05 0
1.16658 1.76477e-05 0
1.06806 6.7816e-06 0
0.818483 -3.01025e-06 0
0.334958 -7.48453e-06 0
-0.335504 1.9681e-05 0
0.334985 1.75163e-07 0
0.817491 1.97151e-05 0
1.06678 2.54308e-05 0
1.16577 2.91194e-05 0
1.19752 3.30108e-05 0
1.20604 3.72702e-05 0
1.208 4.14137e-05 0
1.20839 4.49973e-05 0
1.20846 4.77181e-05 0
1.20846 4.93671e-05 0
1.20846 4.97933e-05 0
1.20845 4.88901e-05 0
1.20843 4.65914e-05 0
1.20836 4.28699e-05 0
1.20799 3.77348e-05 0
1.20612 3.12301e-05 0
1.19786 2.34383e-05 0
1.16661 1.45323e-05 0
1.06808 5.02502e-06 0
0.818503 -3.4919e-06 0
0.334966 -7.17635e-06 0
-0.335506 1.81585e-05 0
0.334988 1.61624e-07 0
0.8175 1.82002e-05 0
1.06679 2.33393e-05 0
1.16578 2.64654e-05 0
1.19753 2.97279e-05 0
1.20605 3.33169e-05 0
1.20801 3.68067e-05 0
1.20841 3.98071e-05 0
1.20847 4.20564e-05 0
1.20848 4.33759e-05 0
1.20847 4.36359e-05 0
1.20846 4.27438e-05 0
1.20845 4.06418e-05 0
1.20838 3.73063e-05 0
1.20801 3.27466e-05 0
1.20614 2.70034e-05 0
1.19789 2.01487e-05 0
1.16663 1.23252e-05 0
1.0681 3.96397e-06 0
0.818521 -3.53685e-06 0
0.334974 -6.69935e-06 0
-0.335509 1.6629e-05 0
0.33499 1.48021e-07 0
0.817509 1.66831e-05 0
1.0668 2.12643e-05 0
1.16579 2.39185e-05 0
1.19754 2.66937e-05 0
1.20606 2.97783e-05 0
1.20802 3.27839e-05 0
1.20842 3.53599e-05 0
1.20848 3.72768e-05 0
1.20849 3.83802e-05 0
1.20849 3.85581e-05 0
1.20848 3.77302e-05 0
1.20847 3.58461e-05 0
1.2084 3.28855e-05 0
1.20803 2.88578e-05 0
1.20616 2.37993e-05 0
1.19791 1.777e-05 0
1.16666 1.08803e-05 0
1.06812 3.47782e-06 0
0.818537 -3.22645e-06 0
0.33498 -6.08724e-06 0
-0.335511 1.5113e-05 0
0.334992 1.34536e-07 0
0.817516 1.51799e-05 0
1.06681 1.92292e-05 0
1.1658 2.14933e-05 0
1.19755 2.39018e-05 0
1.20607 2.66212e-05 0
1.20803 2.92844e-05 0
1.20843 3.15698e-05 0
1.20849 3.32724e-05 0
1.2085 3.42568e-05 0
1.2085 3.44254e-05 0
1.20849 3.37077e-05 0
1.20848 3.20593e-05 0
1.20841 2.94623e-05 0
1.20804 2.59254e-05 0
1.20618 2.14798e-05 0
1.19793 1.61731e-05 0
1.16668 1.00828e-05 0
1.06814 3.47402e-06 0
0.818552 -2.62176e-06 0
0.334987 -5.36476e-06 0
-0.335512 1.36197e-05 0
0.334994 1.21252e-07 0
0.817523 1.36951e-05 0
1.06682 1.7244e-05 0
1.16581 1.91932e-05 0
1.19756 2.13398e-05 0
1.20608 2.3813e-05 0
1.20804 2.62548e-05 0
1.20844 2.83639e-05 0
1.2085 2.99539e-05 0
1.20851 3.09038e-05 0
1.20851 3.11269e-05 0
1.20851 3.05599e-05 0
1.20849 2.91626e-05 0
1.20843 2.69182e-05 0
1.20806 2.38337e-05 0
1.2062 1.99351e-05 0
1.19794 1.5257e-05 0
1.16669 9.84467e-06 0
1.06816 3.88331e-06 0
0.818565 -1.7673e-06 0
0.334992 -4.54952e-06 0
-0.335514 1.21482e-05 0
0.334995 1.08162e-07 0
0.817529 1.22245e-05 0
1.06683 1.53089e-05 0
1.16582 1.70134e-05 0
1.19757 1.89912e-05 0
1.20609 2.13218e-05 0
1.20805 2.36475e-05 0
1.20844 2.56801e-05 0
1.20851 2.72468e-05 0
1.20852 2.82373e-05 0
1.20852 2.8572e-05 0
1.20852 2.81926e-05 0
1.20851 2.70606e-05 0
1.20844 2.51591e-05 0
1.20807 2.24923e-05 0
1.20621 1.90804e-05 0
1.19796 1.49453e-05 0
1.16671 1.01012e-05 0
1.06818 4.65616e-06 0
0.818578 -6.93918e-07 0
0.334998 -3.65323e-06 0
-0.335515 1.06912e-05 0
0.334997 9.52015e-08 0
0.817535 1.07608e-05 0
1.06684 1.34192e-05 0
1.16583 1.49448e-05 0
1.19757 1.68375e-05 0
1.20609 1.91178e-05 0
1.20806 2.14204e-05 0
1.20845 2.34658e-05 0
1.20852 2.50898e-05 0
1.20853 2.61891e-05 0
1.20853 2.66886e-05 0
1.20853 2.65316e-05 0
1.20852 2.56796e-05 0
1.20845 2.41136e-05 0
1.20808 2.18338e-05 0
1.20622 1.88541e-05 0
1.19797 1.51842e-05 0
1.16672 1.08082e-05 0
1.06819 5.76017e-06 0
0.818589 5.79296e-07 0
0.335003 -2.68261e-06 0
-0.335516 9.2404e-06 0