# vtk DataFile Version 3.0
vtk output
ASCII
DATASET UNSTRUCTURED_GRID
POINTS 1913 double
0.045977 0 0
0.045977 0.0952381 0
0.045977 0.142857 0
0.045977 0.190476 0
0.045977 0.238095 0
0.045977 0.285714 0
0.045977 0.333333 0
0.045977 0.380952 0
0.045977 0.428571 0
0.045977 0.47619 0
0.045977 0.52381 0
0.045977 0.571429 0
0.045977 0.619048 0
0.045977 0.666667 0
0.045977 0.714286 0
0.045977 0.761905 0
0.045977 0.809524 0
0.045977 0.857143 0
0.045977 0.904762 0
0.045977 0.952381 0
0.045977 1 0
0.091954 0 0
0.091954 0.047619 0
0.091954 0.0952381 0
0.091954 0.142857 0
0.091954 0.190476 0
0.091954 0.238095 0
0.091954 0.285714 0
0.091954 0.333333 0
0.091954 0.380952 0
0.091954 0.428571 0
0.091954 0.47619 0
0.091954 0.52381 0
0.091954 0.571429 0
0.091954 0.619048 0
0.091954 0.666667 0
0.091954 0.714286 0
0.091954 0.761905 0
0.091954 0.809524 0
0.091954 0.857143 0
0.091954 0.904762 0
0.091954 0.952381 0
0.091954 1 0
0.137931 0 0
0.137931 0.047619 0
0.137931 0.0952381 0
0.137931 0.142857 0
0.137931 0.190476 0
0.137931 0.238095 0
0.137931 0.285714 0
0.137931 0.333333 0
0.137931 0.380952 0
0.137931 0.428571 0
0.137931 0.47619 0
0.137931 0.52381 0
0.137931 0.571429 0
0.137931 0.619048 0
0.137931 0.666667 0
0.137931 0.714286 0
0.137931 0.761905 0
0.137931 0.809524 0
0.137931 0.857143 0
0.137931 0.904762 0
0.137931 0.952381 0
0.137931 1 0
0.183908 0 0
0.183908 0.047619 0
0.183908 0.0952381 0
0.183908 0.142857 0
0.183908 0.190476 0
0.183908 0.238095 0
0.183908 0.285714 0
0.183908 0.333333 0
0.183908 0.380952 0
0.183908 0.428571 0
0.183908 0.47619 0
0.183908 0.52381 0
0.183908 0.571429 0
0.183908 0.619048 0
0.183908 0.666667 0
0.183908 0.714286 0
0.183908 0.761905 0
0.183908 0.809524 0
0.183908 0.857143 0
0.183908 0.904762 0
0.183908 0.952381 0
0.183908 1 0
0.229885 0 0
0.229885 0.047619 0
0.229885 0.0952381 0
0.229885 0.142857 0
0.229885 0.190476 0
0.229885 0.238095 0
0.229885 0.285714 0
0.229885 0.333333 0
0.229885 0.380952 0
0.229885 0.428571 0
0.229885 0.47619 0
0.229885 0.52381 0
0.229885 0.571429 0
0.229885 0.619048 0
0.229885 0.666667 0
0.229885 0.714286 0
0.229885 0.761905 0
0.229885 0.809524 0
0.229885 0.857143 0
0.229885 0.904762 0
0.229885 0.952381 0
0.229885 1 0
0.275862 0 0
0.275862 0.047619 0
0.275862 0.0952381 0
0.275862 0.142857 0
0.275862 0.190476 0
0.275862 0.238095 0
0.275862 0.285714 0
0.275862 0.333333 0
0.275862 0.380952 0
0.275862 0.428571 0
0.275862 0.47619 0
0.275862 0.52381 0
0.275862 0.571429 0
0.275862 0.619048 0
0.275862 0.666667 0
0.275862 0.714286 0
0.275862 0.761905 0
0.275862 0.809524 0
0.275862 0.857143 0
0.275862 0.904762 0
0.275862 0.952381 0
0.275862 1 0
0.321839 0 0
0.321839 0.047619 0
0.321839 0.0952381 0
0.321839 0.142857 0
0.321839 0.190476 0
0.321839 0.238095 0
0.321839 0.285714 0
0.321839 0.333333 0
0.321839 0.380952 0
0.321839 0.428571 0
0.321839 0.47619 0
0.321839 0.52381 0
0.321839 0.571429 0
0.321839 0.619048 0
0.321839 0.666667 0
0.321839 0.714286 0
0.321839 0.761905 0
0.321839 0.809524 0
0.321839 0.857143 0
0.321839 0.904762 0
0.321839 0.952381 0
0.321839 1 0
0.367816 0 0
0.367816 0.047619 0
0.367816 0.0952381 0
0.367816 0.142857 0
0.367816 0.190476 0
0.367816 0.238095 0
0.367816 0.285714 0
0.367816 0.333333 0
0.367816 0.380952 0
0.367816 0.428571 0
0.367816 0.47619 0
0.367816 0.52381 0
0.367816 0.571429 0
0.367816 0.619048 0
0.367816 0.666667 0
0.367816 0.714286 0
0.367816 0.761905 0
0.367816 0.809524 0
0.367816 0.857143 0
0.367816 0.904762 0
0.367816 0.952381 0
0.367816 1 0
0.413793 0 0
0.413793 0.047619 0
0.413793 0.0952381 0
0.413793 0.142857 0
0.413793 0.190476 0
0.413793 0.238095 0
0.413793 0.285714 0
0.413793 0.333333 0
0.413793 0.380952 0
0.413793 0.428571 0
0.413793 0.47619 0
0.413793 0.52381 0
0.413793 0.571429 0
0.413793 0.619048 0
0.413793 0.666667 0
0.413793 0.714286 0
0.413793 0.761905 0
0.413793 0.809524 0
0.413793 0.857143 0
0.413793 0.904762 0
0.413793 0.952381 0
0.413793 1 0
0.45977 0 0
0.45977 0.047619 0
0.45977 0.0952381 0
0.45977 0.142857 0
0.45977 0.190476 0
0.45977 0.238095 0
0.45977 0.285714 0
0.45977 0.333333 0
0.45977 0.380952 0
0.45977 0.428571 0
0.45977 0.47619 0
0.45977 0.52381 0
0.45977 0.571429 0
0.45977 0.619048 0
0.45977 0.666667 0
0.45977 0.714286 0
0.45977 0.761905 0
0.45977 0.809524 0
0.45977 0.857143 0
0.45977 0.904762 0
0.45977 0.952381 0
0.45977 1 0
0.505747 0 0
0.505747 0.047619 0
0.505747 0.0952381 0
0.505747 0.142857 0
0.505747 0.190476 0
0.505747 0.238095 0
0.505747 0.285714 0
0.505747 0.333333 0
0.505747 0.380952 0
0.505747 0.428571 0
0.505747 0.47619 0
0.505747 0.52381 0
0.505747 0.571429 0
0.505747 0.619048 0
0.505747 0.666667 0
0.505747 0.714286 0
0.505747 0.761905 0
0.505747 0.809524 0
0.505747 0.857143 0
0.505747 0.904762 0
0.505747 0.952381 0
0.505747 1 0
0.551724 0 0
0.551724 0.047619 0
0.551724 0.0952381 0
0.551724 0.142857 0
0.551724 0.190476 0
0.551724 0.238095 0
0.551724 0.285714 0
0.551724 0.333333 0
0.551724 0.380952 0
0.551724 0.428571 0
0.551724 0.47619 0
0.551724 0.52381 0
0.551724 0.571429 0
0.551724 0.619048 0
0.551724 0.666667 0
0.551724 0.714286 0
0.551724 0.761905 0
0.551724 0.809524 0
0.551724 0.857143 0
0.551724 0.904762 0
0.551724 0.952381 0
0.551724 1 0
0.597701 0 0
0.597701 0.047619 0
0.597701 0.0952381 0
0.597701 0.142857 0
0.597701 0.190476 0
0.597701 0.238095 0
0.597701 0.285714 0
0.597701 0.333333 0
0.597701 0.380952 0
0.597701 0.428571 0
0.597701 0.47619 0
0.597701 0.52381 0
0.597701 0.571429 0
0.597701 0.619048 0
0.597701 0.666667 0
0.597701 0.714286 0
0.597701 0.761905 0
0.597701 0.809524 0
0.597701 0.857143 0
0.597701 0.904762 0
0.597701 0.952381 0
0.597701 1 0
0.643678 0 0
0.643678 0.047619 0
0.643678 0.0952381 0
0.643678 0.142857 0
0.643678 0.190476 0
0.643678 0.238095 0
0.643678 0.285714 0
0.643678 0.333333 0
0.643678 0.380952 0
0.643678 0.428571 0
0.643678 0.47619 0
0.643678 0.52381 0
0.643678 0.571429 0
0.643678 0.619048 0
0.643678 0.666667 0
0.643678 0.714286 0
0.643678 0.761905 0
0.643678 0.809524 0
0.643678 0.857143 0
0.643678 0.904762 0
0.643678 0.952381 0
0.643678 1 0
0.689655 0 0
0.689655 0.047619 0
0.689655 0.0952381 0
0.689655 0.142857 0
0.689655 0.190476 0
0.689655 0.238095 0
0.689655 0.285714 0
0.689655 0.333333 0
0.689655 0.380952 0
0.689655 0.428571 0
0.689655 0.47619 0
0.689655 0.52381 0
0.689655 0.571429 0
0.689655 0.619048 0
0.689655 0.666667 0
0.689655 0.714286 0
0.689655 0.761905 0
0.689655 0.809524 0
0.689655 0.857143 0
0.689655 0.904762 0
0.689655 0.952381 0
0.689655 1 0
0.735632 0 0
0.735632 0.047619 0
0.735632 0.0952381 0
0.735632 0.142857 0
0.735632 0.190476 0
0.735632 0.238095 0
0.735632 0.285714 0
0.735632 0.333333 0
0.735632 0.380952 0
0.735632 0.428571 0
0.735632 0.47619 0
0.735632 0.52381 0
0.735632 0.571429 0
0.735632 0.619048 0
0.735632 0.666667 0
0.735632 0.714286 0
0.735632 0.761905 0
0.735632 0.809524 0
0.735632 0.857143 0
0.735632 0.904762 0
0.735632 0.952381 0
0.735632 1 0
0.781609 0 0
0.781609 0.047619 0
0.781609 0.0952381 0
0.781609 0.142857 0
0.781609 0.190476 0
0.781609 0.238095 0
0.781609 0.285714 0
0.781609 0.333333 0
0.781609 0.380952 0
0.781609 0.428571 0
0.781609 0.47619 0
0.781609 0.52381 0
0.781609 0.571429 0
0.781609 0.619048 0
0.781609 0.666667 0
0.781609 0.714286 0
0.781609 0.761905 0
0.781609 0.809524 0
0.781609 0.857143 0
0.781609 0.904762 0
0.781609 0.952381 0
0.781609 1 0
0.827586 0 0
0.827586 0.047619 0
0.827586 0.0952381 0
0.827586 0.142857 0
0.827586 0.190476 0
0.827586 0.238095 0
0.827586 0.285714 0
0.827586 0.333333 0
0.827586 0.380952 0
0.827586 0.428571 0
0.827586 0.47619 0
0.827586 0.52381 0
0.827586 0.571429 0
0.827586 0.619048 0
0.827586 0.666667 0
0.827586 0.714286 0
0.827586 0.761905 0
0.827586 0.809524 0
0.827586 0.857143 0
0.827586 0.904762 0
0.827586 0.952381 0
0.827586 1 0
0.873563 0 0
0.873563 0.047619 0
0.873563 0.0952381 0
0.873563 0.142857 0
0.873563 0.190476 0
0.873563 0.238095 0
0.873563 0.285714 0
0.873563 0.333333 0
0.873563 0.380952 0
0.873563 0.428571 0
0.873563 0.47619 0
0.873563 0.52381 0
0.873563 0.571429 0
0.873563 0.619048 0
0.873563 0.666667 0
0.873563 0.714286 0
0.873563 0.761905 0
0.873563 0.809524 0
0.873563 0.857143 0
0.873563 0.904762 0
0.873563 0.952381 0
0.873563 1 0
0.91954 0 0
0.91954 0.047619 0
0.91954 0.0952381 0
0.91954 0.142857 0
0.91954 0.190476 0
0.91954 0.238095 0
0.91954 0.285714 0
0.91954 0.333333 0
0.91954 0.380952 0
0.91954 0.428571 0
0.91954 0.47619 0
0.91954 0.52381 0
0.91954 0.571429 0
0.91954 0.619048 0
0.91954 0.666667 0
0.91954 0.714286 0
0.91954 0.761905 0
0.91954 0.809524 0
0.91954 0.857143 0
0.91954 0.904762 0
0.91954 0.952381 0
0.91954 1 0
0.965517 0 0
0.965517 0.047619 0
0.965517 0.0952381 0
0.965517 0.142857 0
0.965517 0.190476 0
0.965517 0.238095 0
0.965517 0.285714 0
0.965517 0.333333 0
0.965517 0.380952 0
0.965517 0.428571 0
0.965517 0.47619 0
0.965517 0.52381 0
0.965517 0.571429 0
0.965517 0.619048 0
0.965517 0.666667 0
0.965517 0.714286 0
0.965517 0.761905 0
0.965517 0.809524 0
0.965517 0.857143 0
0.965517 0.904762 0
0.965517 0.952381 0
0.965517 1 0
1.01149 0 0
1.01149 0.047619 0
1.01149 0.0952381 0
1.01149 0.142857 0
1.01149 0.190476 0
1.01149 0.238095 0
1.01149 0.285714 0
1.01149 0.333333 0
1.01149 0.380952 0
1.01149 0.428571 0
1.01149 0.47619 0
1.01149 0.52381 0
1.01149 0.571429 0
1.01149 0.619048 0
1.01149 0.666667 0
1.01149 0.714286 0
1.01149 0.761905 0
1.01149 0.809524 0
1.01149 0.857143 0
1.01149 0.904762 0
1.01149 0.952381 0
1.01149 1 0
1.05747 0 0
1.05747 0.047619 0
1.05747 0.0952381 0
1.05747 0.142857 0
1.05747 0.190476 0
1.05747 0.238095 0
1.05747 0.285714 0
1.05747 0.333333 0
1.05747 0.380952 0
1.05747 0.428571 0
1.05747 0.47619 0
1.05747 0.52381 0
1.05747 0.571429 0
1.05747 0.619048 0
1.05747 0.666667 0
1.05747 0.714286 0
1.05747 0.761905 0
1.05747 0.809524 0
1.05747 0.857143 0
1.05747 0.904762 0
1.05747 0.952381 0
1.05747 1 0
1.10345 0 0
1.10345 0.047619 0
1.10345 0.0952381 0
1.10345 0.142857 0
1.10345 0.190476 0
1.10345 0.238095 0
1.10345 0.285714 0
1.10345 0.333333 0
1.10345 0.380952 0
1.10345 0.428571 0
1.10345 0.47619 0
1.10345 0.52381 0
1.10345 0.571429 0
[...]
POINT_DATA 1913
VECTORS velocity[m/s] double
-0 0.209454 0
0 0.209454 0
0 0.209376 0
0 0.180959 0
0 0.150623 0
0 0.12186 0
0 0.0948351 0
0 0.0692094 0
0 0.044565 0
0 0.0204876 0
0 -0.00342289 0
0 -0.027567 0
0 -0.0523728 0
0 -0.0783317 0
0 -0.106046 0
0 -0.136292 0
0 -0.170116 0
0 -0.208941 0
0 -0.254271 0
0 -0.302746 0
0 -0.309896 0
-0.872558 0.185232 0
0.872558 0.00163374 0
1.07487 0.185232 0
1.10223 0.208816 0
1.10408 0.184414 0
1.10256 0.153008 0
1.10088 0.123211 0
1.09953 0.0956309 0
1.09858 0.0696947 0
1.09804 0.0448397 0
1.09788 0.0205928 0
1.0981 -0.00347009 0
1.09874 -0.0277618 0
1.09985 -0.0527193 0
1.10155 -0.078845 0
1.10399 -0.106764 0
1.10745 -0.137317 0
1.11228 -0.171688 0
1.11856 -0.211266 0
1.12159 -0.255084 0
1.08169 -0.286331 0
0.77558 -0.235251 0
-0.695292 0.144678 0
0.695292 0.0012961 0
1.05209 0.144678 0
1.12579 0.189897 0
1.1344 0.178653 0
1.13133 0.151198 0
1.12751 0.122244 0
1.12457 0.09492 0
1.12258 0.0691956 0
1.12145 0.0445579 0
1.12111 0.0205295 0
1.12156 -0.00330668 0
1.12284 -0.0273455 0
1.12508 -0.0519979 0
1.1285 -0.0777309 0
1.13349 -0.10512 0
1.14063 -0.134906 0
1.15049 -0.167886 0
1.16086 -0.20371 0
1.15176 -0.235371 0
1.03237 -0.234795 0
0.548441 -0.146341 0
-0.556854 0.105545 0
0.556854 0.000944871 0
1.00844 0.105545 0
1.13664 0.161747 0
1.16091 0.164679 0
1.15929 0.144581 0
1.15389 0.118613 0
1.14941 0.0926216 0
1.14637 0.0677216 0
1.14465 0.0437402 0
1.14412 0.0203029 0
1.14477 -0.00295288 0
1.14664 -0.0263716 0
1.14992 -0.0503052 0
1.15495 -0.0751415 0
1.16225 -0.101327 0
1.17248 -0.129309 0
1.18508 -0.159015 0
1.19143 -0.187596 0
1.15121 -0.203128 0
0.94697 -0.176843 0
0.407146 -0.083699 0
-0.45586 0.0738516 0
0.45586 0.000660516 0
0.954172 0.0738516 0
1.13381 0.132237 0
1.18032 0.146251 0
1.18436 0.134286 0
1.17899 0.112637 0
1.17345 0.0888868 0
1.16953 0.0653722 0
1.16728 0.0424434 0
1.16658 0.019926 0
1.16738 -0.00244289 0
1.16975 -0.0249301 0
1.1739 -0.0478044 0
1.18023 -0.071344 0
1.18927 -0.09581 0
1.20116 -0.121237 0
1.21267 -0.146526 0
1.20643 -0.166701 0
1.12583 -0.167946 0
0.857038 -0.128102 0
0.326333 -0.0478513 0
-0.385193 0.0504911 0
0.385193 0.000451219 0
0.8978 0.0504911 0
1.12028 0.10556 0
1.19187 0.126699 0
1.20526 0.121989 0
1.20192 0.105056 0
1.19616 0.084078 0
1.19166 0.062349 0
1.18902 0.0407732 0
1.18817 0.0194293 0
1.18909 -0.00181684 0
1.19183 -0.0231385 0
1.19663 -0.0447104 0
1.20385 -0.0666888 0
1.21382 -0.0891278 0
1.22557 -0.111625 0
1.23215 -0.132165 0
1.20763 -0.144508 0
1.08736 -0.135536 0
0.779555 -0.0918649 0
0.280132 -0.0286848 0
-0.336879 0.0343591 0
0.336879 0.000306833 0
0.844629 0.0343591 0
1.09987 0.0833288 0
1.19642 0.108151 0
1.22161 0.109155 0
1.22217 0.0966789 0
1.21714 0.0786356 0
1.2125 0.058901 0
1.20963 0.0388609 0
1.20869 0.0188542 0
1.20968 -0.00111453 0
1.21266 -0.0211224 0
1.21785 -0.0412511 0
1.22552 -0.0615382 0
1.23554 -0.0818368 0
1.24541 -0.101348 0
1.24407 -0.117386 0
1.19897 -0.123295 0
1.04519 -0.108141 0
0.718553 -0.0663267 0
0.252437 -0.0183293 0
-0.304001 0.0237106 0
0.304001 0.000211592 0
0.797348 0.0237106 0
1.07591 0.065689 0
1.19545 0.0916676 0
1.23366 0.0967874 0
1.2396 0.0881775 0
1.23619 0.0729666 0
1.23184 0.0552703 0
1.22894 0.0368382 0
1.22797 0.0182449 0
1.22899 -0.000371597 0
1.2321 -0.0189988 0
1.23744 -0.0376354 0
1.24512 -0.0562126 0
1.25438 -0.0744044 0
1.26089 -0.0910884 0
1.24978 -0.103174 0
1.18434 -0.104231 0
1.00482 -0.0860289 0
0.672211 -0.0486401 0
0.234739 -0.0124304 0
-0.281312 0.016856 0
0.281312 0.000150317 0
0.756817 0.016856 0
1.05082 0.0520961 0
1.19051 0.0775895 0
1.24197 0.0854525 0
1.25428 0.0800175 0
1.25328 0.0673866 0
1.24964 0.0516562 0
1.24689 0.0348169 0
1.24594 0.0176401 0
1.24698 0.000382292 0
1.25009 -0.0168659 0
1.25538 -0.0340339 0
1.26268 -0.050963 0
1.27049 -0.0671756 0
1.27256 -0.0813078 0
1.2508 -0.090096 0
1.16676 -0.0877316 0
0.96872 -0.0686131 0
0.63725 -0.036368 0
0.222738 -0.00884211 0
-0.265183 0.0124623 0
0.265183 0.000111061 0
0.722792 0.0124623 0
1.02621 0.0417814 0
1.18291 0.0658515 0
1.24722 0.0753908 0
1.26648 0.0724713 0
1.26846 0.062107 0
1.2659 0.0482015 0
1.26348 0.0328801 0
1.26261 0.0170683 0
1.26363 0.00112367 0
1.26667 -0.0147988 0
1.27172 -0.0305728 0
1.27834 -0.0459655 0
1.28413 -0.0603761 0
1.28105 -0.0722765 0
1.24851 -0.0784091 0
1.1483 -0.0737862 0
0.937587 -0.0550601 0
0.610673 -0.0277532 0
0.2142 -0.00652853 0
-0.253257 0.0096024 0
0.253257 8.55241e-05 0
0.694484 0.00960239 0
1.00297 0.033994 0
1.1737 0.056198 0
1.25003 0.0666382 0
1.27648 0.065664 0
1.28189 0.0572465 0
1.28069 0.0449935 0
1.27875 0.0310805 0
1.278 0.0165473 0
1.279 0.00183479 0
1.2819 -0.0128495 0
1.28658 -0.0273352 0
1.29225 -0.0413292 0
1.29562 -0.0541337 0
1.28697 -0.0641225 0
1.24405 -0.0681721 0
1.13022 -0.0621738 0
0.911222 -0.0445616 0
0.590181 -0.0216107 0
0.207897 -0.00496993 0
-0.244069 0.00768373 0
0.244069 6.84018e-05 0
0.670934 0.00768372 0
0.98153 0.0281009 0
1.16362 0.0483121 0
1.25098 0.0591173 0
1.28461 0.0596216 0
1.29372 0.0528545 0
1.29413 0.0420746 0
1.29278 0.0294447 0
1.29221 0.0160845 0
1.29318 0.00250281 0
1.29588 -0.01105 0
1.3001 -0.0243686 0
1.30461 -0.0371101 0
1.30527 -0.0485027 0
1.29088 -0.0568773 0
1.23826 -0.0593273 0
1.11322 -0.0525926 0
0.889062 -0.0364298 0
0.574114 -0.0171588 0
0.203099 -0.00388662 0
-0.236716 0.00634677 0
0.236716 5.6478e-05 0
0.651221 0.00634677 0
0.962016 0.023608 0
1.15319 0.0418826 0
1.25049 0.0526983 0
1.29115 0.0543111 0
1.30413 0.0489328 0
1.30632 0.0394538 0
1.30568 0.0279791 0
1.30532 0.0156796 0
1.30627 0.00311894 0
1.30874 -0.00941669 0
1.3124 -0.0216927 0
1.31561 -0.0333252 0
1.31335 -0.0434878 0
1.29324 -0.0505122 0
1.23176 -0.0517564 0
1.09761 -0.0447293 0
0.870456 -0.0301143 0
0.561299 -0.0138818 0
0.199346 -0.00311633 0
-0.230643 0.00537864 0
0.230643 4.78483e-05 0
0.634555 0.00537864 0
0.944371 0.0201458 0
1.14275 0.0366331 0
1.24893 0.0472355 0
1.29634 0.0496688 0
1.31328 0.0454549 0
1.3174 0.0371189 0
1.31755 0.0266767 0
1.31745 0.015327 0
1.31837 0.0036777 0
1.32059 -0.00795401 0
1.32363 -0.0193078 0
1.32543 -0.0299652 0
1.32013 -0.0390619 0
1.29444 -0.0449642 0
1.22497 -0.0453161 0
1.0835 -0.0382925 0
0.854783 -0.0251879 0
0.550905 -0.0114354 0
0.196337 -0.00255887 0
-0.225496 0.00465298 0
0.225496 4.13829e-05 0
0.620297 0.00465298 0
0.928453 0.017444 0
1.13251 0.0323308 0
1.24658 0.0425869 0
1.30041 0.0456188 0
1.32133 0.0423795 0
1.32748 0.0350452 0
1.32851 0.0255222 0
1.32869 0.0150182 0
1.3296 0.00417626 0
1.33156 -0.00665835 0
1.33392 -0.0172014 0
1.33421 -0.0270046 0
1.32583 -0.0351804 0
1.29478 -0.0401542 0
1.21819 -0.0398583 0
1.07085 -0.0330265 0
0.841505 -0.021324 0
0.542335 -0.00958559 0
0.193867 -0.00214942 0
-0.221043 0.004093 0
0.221043 3.63954e-05 0
0.607947 0.004093 0
0.914079 0.0153069 0
1.12261 0.0287851 0
1.24365 0.0386228 0
1.30353 0.0420833 0
1.32841 0.0396594 0
1.33668 0.0332025 0
1.33865 0.0244966 0
1.33916 0.0147435 0
1.34006 0.00461386 0
1.34174 -0.00552086 0
1.34338 -0.0153533 0
1.3421 -0.0244093 0
1.33064 -0.0317899 0
1.2945 -0.0359974 0
1.21159 -0.0352422 0
1.05955 -0.0287139 0
0.830171 -0.0182747 0
0.535155 -0.00817048 0
0.191791 -0.00184469 0
-0.217127 0.00365017 0
0.217127 3.24525e-05 0
0.59712 0.00365016 0
0.901066 0.0135928 0
1.11311 0.0258427 0
1.24031 0.0352301 0
1.30587 0.0389892 0
1.33465 0.0372473 0
1.34508 0.0315592 0
1.34807 0.0235799 0
1.34894 0.0144933 0
1.34985 0.0049914 0
1.35123 -0.00452964 0
1.35213 -0.0137395 0
1.34923 -0.0221413 0
1.3347 -0.0288351 0
1.29377 -0.0324112 0
1.20529 -0.0313397 0
1.04947 -0.025174 0
0.820416 -0.0158518 0
0.529047 -0.00707588 0
0.19001 -0.00161501 0
-0.213634 0.00329252 0
0.213634 2.92688e-05 0
0.58752 0.00329251 0
0.889238 0.0121985 0
1.10405 0.0233818 0
1.23668 0.0323122 0
1.30756 0.0362708 0
1.34014 0.0350991 0
1.35279 0.0300853 0
1.35684 0.0227531 0
1.35812 0.0142591 0
1.35904 0.005311 0
1.36012 -0.00367134 0
1.36024 -0.0123347 0
1.35569 -0.0201625 0
1.33815 -0.0262621 0
1.29273 -0.029318 0
1.19934 -0.0280379 0
1.04047 -0.0222588 0
0.811942 -0.0139127 0
0.523775 -0.00621999 0
0.188451 -0.00143964 0
-0.210483 0.00299814 0
0.210483 2.6649e-05 0
0.578921 0.00299814 0
0.878441 0.0110482 0
1.09542 0.0213056 0
1.23286 0.0297879 0
1.30869 0.0338703 0
1.34498 0.0331752 0
1.35987 0.0287535 0
1.36504 0.021999 0
1.36676 0.0140335 0
1.36771 0.00557567 0
1.36849 -0.00293221 0
1.3678 -0.0111141 0
1.36158 -0.0184365 0
1.3411 -0.0240206 0
1.2915 -0.026648 0
1.19376 -0.0252389 0
1.03241 -0.0198477 0
0.804515 -0.0123486 0
0.519159 -0.00554337 0
0.187061 -0.00130391 0
-0.207614 0.0027516 0
0.207614 2.44553e-05 0
0.571149 0.00275159 0
0.868537 0.0100863 0
1.08723 0.0195379 0
1.22892 0.0275898 0
1.30936 0.0317385 0
1.34925 0.0314412 0
1.36639 0.0275403 0
1.37274 0.0213029 0
1.37492 0.0138108 0
1.37593 0.00578903 0
1.37639 -0.00229882 0
1.37487 -0.0100543 0
1.36697 -0.0169295 0
1.34364 -0.022065 0
1.29014 -0.0243392 0
1.18855 -0.0228596 0
1.02517 -0.0178434 0
0.797944 -0.0110765 0
0.515066 -0.00500235 0
0.185802 -0.00119725 0
-0.204981 0.00254175 0
0.204981 2.25884e-05 0
0.564067 0.00254174 0
0.859411 0.00927086 0
1.07946 0.0180185 0
1.22491 0.0256623 0
1.30965 0.0298334 0
1.35301 0.0298679 0
1.37241 0.0264256 0
1.37997 0.0206526 0
1.38267 0.0135866 0
1.38374 0.00595509 0
1.38387 -0.00175846 0
1.38151 -0.00913386 0
1.37193 -0.0156116 0
1.34583 -0.0203553 0
1.28871 -0.0223375 0
1.18371 -0.0208297 0
1.01864 -0.0161675 0
0.79208 -0.0100326 0
0.511392 -0.00456453 0
0.184646 -0.00111203 0
-0.202549 0.00236045 0
0.202549 2.09758e-05 0
0.55757 0.00236045 0
0.850965 0.00857083 0
1.07208 0.0167001 0
1.22089 0.0239599 0
1.30961 0.0281203 0
1.35634 0.0284307 0
1.37798 0.0253929 0
1.38679 0.0200383 0
1.39004 0.0133578 0
1.39119 0.00607807 0
1.391 -0.00129941 0
1.38776 -0.00833367 0
1.37651 -0.0144559 0
1.34775 -0.0188559 0
1.28725 -0.0205964 0
1.17921 -0.0190903 0
1.01271 -0.0147572 0
0.7868 -0.00916802 0
0.508059 -0.0042057 0
0.183572 -0.00104269 0
-0.20029 0.00220169 0
0.20029 1.95638e-05 0
0.551574 0.00220169 0
0.843116 0.00796255 0
1.06507 0.0155455 0
1.21687 0.0224454 0
1.30931 0.02657 0
1.35927 0.0271091 0
1.38315 0.0244287 0
1.39324 0.0194523 0
1.39707 0.0131226 0
1.39831 0.00616221 0
1.39779 -0.000911028 0
1.39367 -0.00763676 0
1.38076 -0.0134392 0
1.34943 -0.0175364 0
1.2858 -0.0190762 0
1.17502 -0.0175925 0
1.00732 -0.0135619 0
0.782009 -0.00844473 0
0.505005 -0.00390768 0
0.182566 -0.000985163 0
-0.198183 0.00206099 0
0.198183 1.83126e-05 0
0.546011 0.00206099 0
0.835795 0.0074281 0
1.05841 0.0145251 0
1.21289 0.0210887 0
1.30879 0.0251584 0
1.36186 0.0258865 0
1.38796 0.0235221 0
1.39935 0.0188887 0
1.40379 0.0128799 0
1.40514 0.00621172 0
1.40428 -0.000583749 0
1.39927 -0.0070283 0
1.38472 -0.0125413 0
1.35092 -0.0163705 0
1.28437 -0.017743 0
1.17113 -0.0162956 0
1.00238 -0.0125411 0
0.777628 -0.0078334 0
0.502183 -0.00365671 0
0.181614 -0.00093645 0
-0.196211 0.00193499 0
0.196211 1.71923e-05 0
0.540829 0.00193498 0
0.828943 0.00695372 0
1.05207 0.0136157 0
1.20896 0.019865 0
1.30809 0.0238659 0
1.36414 0.0247491 0
1.39243 0.0226645 0
1.40515 0.0183431 0
1.41022 0.0126296 0
1.4117 0.00623067 0
1.4105 -0.000309088 0
1.4046 -0.00649546 0
1.38841 -0.0117451 0
1.35224 -0.0153358 0
1.28297 -0.0165683 0
1.16751 -0.0151661 0
0.997832 -0.0116626 0
0.773596 -0.0073112 0
0.499557 -0.0034424 0
0.18071 -0.00089436 0
-0.194359 0.00182113 0
0.194359 1.618e-05 0
0.535984 0.00182112 0
0.822511 0.00652887 0
1.04604 0.012799 0
1.2051 0.0187545 0
1.30724 0.0226762 0
1.36615 0.0236859 0
1.3966 0.0218494 0
1.41067 0.0178125 0
1.4164 0.0123718 0
1.41801 0.00622291 0
1.41648 -7.9545e-05 0
1.40967 -0.00602714 0
1.39188 -0.0110357 0
1.35343 -0.0144133 0
1.28162 -0.0155279 0
1.16413 -0.0141762 0
0.993631 -0.0109002 0
0.76986 -0.00686032 0
0.497096 -0.00325679 0
0.179847 -0.000857277 0
-0.192617 0.00171749 0
0.192617 1.52586e-05 0
0.531438 0.00171748 0
0.816457 0.00614533 0
1.04029 0.0120603 0
1.20131 0.0177409 0
1.30626 0.0215758 0
1.36793 0.0226878 0
1.4005 0.0210713 0
1.41592 0.0172947 0
1.42234 0.0121074 0
1.4241 0.00619208 0
1.42222 0.000111462 0
1.4145 -0.00561383 0
1.39514 -0.0104005 0
1.35451 -0.0135866 0
1.28031 -0.0146017 0
1.16096 -0.013303 0
0.98973 -0.0102331 0
0.766381 -0.00646685 0
0.49478 -0.00309386 0
0.179019 -0.000824013 0
-0.190973 0.00162255 0
0.190973 1.44147e-05 0
0.527163 0.00162254 0
0.810746 0.00579671 0
1.0348 0.0113881 0
1.19761 0.0168109 0
1.30519 0.0205538 0
1.36949 0.0217474 0
1.40415 0.0203265 0
1.42093 0.0167885 0
1.42805 0.0118374 0
1.42997 0.00614156 0
1.42775 0.000269692 0
1.41912 -0.0052474 0
1.39822 -0.00982892 0
1.35549 -0.0128423 0
1.27906 -0.0137725 0
1.158 -0.0125279 0
0.986094 -0.00964457 0
0.763125 -0.00611985 0
0.492588 -0.00294897 0
0.178224 -0.000793694 0
-0.18942 0.00153515 0
0.189421 1.36379e-05 0
0.523133 0.00153514 0
0.805347 0.00547796 0
1.02957 0.0107728 0
1.19399 0.0159537 0
1.30404 0.0196012 0
1.37086 0.0208588 0
1.40756 0.0196117 0
1.42571 0.0162931 0
1.43355 0.011563 0
1.43564 0.00607445 0
1.43307 0.000400166 0
1.42355 -0.00492089 0
1.40113 -0.00931181 0
1.35638 -0.0121684 0
1.27786 -0.0130262 0
1.15521 -0.0118351 0
0.98269 -0.00912101 0
0.760063 -0.00581074 0
0.490507 -0.00281855 0
0.177457 -0.000765676 0
-0.187951 0.00145436 0
0.187952 1.29198e-05 0
0.519326 0.00145435 0
0.800235 0.00518506 0
1.02456 0.0102071 0
1.19047 0.0151604 0
1.30282 0.0187103 0
1.37206 0.0200171 0
1.41077 0.0189246 0
1.43028 0.0158081 0
1.43885 0.0112855 0
1.44112 0.00599359 0
1.43821 0.000507253 0
1.42779 -0.00462835 0
1.40388 -0.00884147 0
1.35721 -0.0115554 0
1.27671 -0.0123507 0
1.15259 -0.0112119 0
0.979494 -0.00865153 0
0.757174 -0.00553272 0
0.488525 -0.00269987 0
0.176718 -0.000739487 0
-0.18656 0.00137944 0
0.18656 1.2254e-05 0
0.515724 0.00137943 0
0.795386 0.0049148 0
1.01978 0.00968478 0
1.18704 0.0144238 0
1.30156 0.017875 0
1.37312 0.0192184 0
1.41378 0.0182635 0
1.43465 0.0153334 0
1.44396 0.0110062 0
1.44641 0.00590155 0
1.44317 0.000594742 0
1.43185 -0.00436473 0
1.4065 -0.00841136 0
1.35798 -0.0109947 0
1.27561 -0.011736 0
1.15012 -0.0106477 0
0.976483 -0.00822729 0
0.754439 -0.00528041 0
0.486632 -0.0025908 0
0.176004 -0.000714777 0
-0.18524 0.00130978 0
0.18524 1.16349e-05 0
0.512311 0.00130977 0
0.790781 0.00466456 0
1.01521 0.00920079 0
1.18371 0.0137376 0
1.30026 0.0170901 0
1.37404 0.0184593 0
1.41661 0.017627 0
1.43882 0.0148693 0
1.44889 0.0107264 0
1.45154 0.00580064 0
1.44796 0.00066592 0
1.43576 -0.0041257 0
1.409 -0.00801592 0
1.3587 -0.0104793 0
1.27455 -0.0111734 0
1.14778 -0.0101336 0
0.973638 -0.00784112 0
0.751842 -0.00504954 0
0.484821 -0.0024897 0
0.175314 -0.000691287 0
-0.183986 0.00124487 0
0.183987 1.1058e-05 0
0.509072 0.00124486 0
0.786401 0.00443217 0
1.01083 0.00875101 0
1.18048 0.0130969 0
1.29894 0.016351 0
1.37485 0.017737 0
1.41927 0.017014 0
1.44282 0.0144159 0
1.45364 0.0104474 0
1.4565 0.00569295 0
1.45258 0.000723631 0
1.43952 -0.00390758 0
1.41138 -0.00765041 0
1.35937 -0.0100032 0
1.27355 -0.010656 0
1.14557 -0.00966254 0
0.970943 -0.00748716 0
0.749371 -0.00483667 0
0.483085 -0.00239527 0
0.174647 -0.000668825 0
-0.182795 0.00118428 0
0.182795 1.05197e-05 0
0.505994 0.00118427 0
0.782231 0.00421584 0
1.00663 0.00833195 0
1.17733 0.0124972 0
1.2976 0.0156541 0
1.37554 0.0170491 0
1.42178 0.0164236 0
1.44666 0.0139737 0
1.45823 0.0101704 0
1.46129 0.0055803 0
1.45706 0.000770331 0
1.44313 -0.00370723 0
1.41365 -0.00731081 0
1.36 -0.0095613 0
1.27259 -0.0101776 0
1.14347 -0.0092283 0
0.968383 -0.00716064 0
0.747013 -0.00463907 0
0.481418 -0.0023065 0
0.174001 -0.000647247 0
-0.181662 0.00112766 0
0.181662 1.00165e-05 0
0.503067 0.00112765 0
0.778257 0.00401406 0
1.00261 0.00794067 0
1.17429 0.011935 0
1.29626 0.014996 0
1.37615 0.0163937 0
1.42414 0.0158552 0
1.45033 0.013543 0
1.46267 0.00989641 0
1.46594 0.00546433 0
1.46138 0.000808137 0
1.44661 -0.00352195 0
1.41582 -0.00699367 0
1.36059 -0.00914919 0
1.27168 -0.00973318 0
1.14147 -0.00882586 0
0.965949 -0.00685762 0
0.744761 -0.00445449 0
0.479816 -0.00222258 0
0.173376 -0.000626446 0
-0.180583 0.00107467 0
0.180583 9.54563e-06 0
0.50028 0.00107466 0
0.774466 0.00382552 0
0.998752 0.00757469 0
1.17133 0.0114071 0
1.29491 0.014374 0
1.37667 0.015769 0
1.42638 0.0153082 0
1.45385 0.013124 0
1.46695 0.00962647 0
1.47043 0.00534646 0
1.46556 0.000838875 0
1.44996 -0.00334946 0
1.4179 -0.00669605 0
1.36116 -0.00876314 0
1.2708 -0.00931834 0
1.13957 -0.00845097 0
0.963629 -0.00657486 0
0.742606 -0.00428114 0
0.478275 -0.00214286 0
0.172771 -0.000606338 0
-0.179554 0.00102504 0
0.179555 9.10462e-06 0
0.497624 0.00102502 0
0.770846 0.00364909 0
0.995052 0.00723183 0
1.16847 0.0109106 0
1.29356 0.0137856 0
1.37711 0.0151733 0
1.42848 0.0147819 0
1.45723 0.0127172 0
1.47108 0.00936142 0
1.47479 0.00522794 0
1.4696 0.000864111 0
1.45319 -0.00318779 0
1.4199 -0.00641543 0
1.36169 -0.00839996 0
1.26996 -0.00892942 0
1.13776 -0.00810007 0
0.961414 -0.00630968 0
0.740542 -0.00411753 0
0.476791 -0.00206684 0
0.172186 -0.000586859 0
-0.178574 0.000978508 0
0.178574 8.69117e-06 0
0.495091 0.000978493 0
0.767387 0.00348381 0
0.9915 0.0069102 0
1.16569 0.0104433 0
1.29222 0.0132285 0
1.37749 0.0146053 0
1.43048 0.014276 0
1.46047 0.0123227 0
1.47507 0.00910202 0
1.479 0.00510984 0
1.47352 0.000885188 0
1.45631 -0.00303526 0
1.42182 -0.00614963 0
1.3622 -0.00805691 0
1.26916 -0.00856327 0
1.13603 -0.00777017 0
0.959297 -0.00605984 0
0.738562 -0.00396245 0
0.475362 -0.00199408 0
0.171619 -0.000567957 0
-0.177637 0.000934851 0
0.177638 8.30327e-06 0
0.492672 0.000934835 0
0.764078 0.00332878 0
0.988089 0.00660813 0
1.163 0.010003 0
1.29089 0.0127008 0
1.37781 0.0140635 0
1.43236 0.0137898 0
1.46358 0.0119407 0
1.47892 0.00884891 0
1.48308 0.00499309 0
1.4773 0.000903251 0
1.45932 -0.00289043 0
1.42366 -0.00589681 0
1.36269 -0.00773162 0
1.2684 -0.00821719 0
1.13438 -0.00745872 0
0.957272 -0.00582346 0
0.736661 -0.00381488 0
0.473985 -0.00192423 0
0.171071 -0.000549589 0
-0.176743 0.000893857 0
0.176743 7.93905e-06 0
0.490361 0.000893841 0
0.760912 0.00318323 0
0.984811 0.00632415 0
1.1604 0.00958771 0
1.28958 0.0122007 0
1.37807 0.0135469 0
1.43415 0.013323 0
1.46656 0.0115715 0
1.48265 0.00860263 0
1.48703 0.00487847 0
1.48096 0.000919277 0
1.46222 -0.00275209 0
1.42543 -0.00565536 0
1.36316 -0.00742205 0
1.26766 -0.00788889 0
1.1328 -0.00716354 0
0.955333 -0.00559895 0
0.734836 -0.00367398 0
0.472658 -0.00185701 0
0.17054 -0.000531722 0
-0.175887 0.000855337 0
0.175888 7.5968e-06 0
0.48815 0.00085532 0
0.75788 0.00304646 0
0.98166 0.00605691 0
1.15787 0.00919574 0
1.28828 0.0117265 0
1.37829 0.0130541 0
1.43584 0.012875 0
1.46943 0.0112149 0
1.48624 0.00836361 0
1.49085 0.00476663 0
1.48451 0.000934089 0
1.46502 -0.00261918 0
1.42713 -0.00542389 0
1.36361 -0.00712644 0
1.26696 -0.00757636 0
1.13129 -0.00688281 0
0.953475 -0.00538499 0
0.733082 -0.00353903 0
0.471379 -0.00179217 0
0.170027 -0.000514324 0
-0.175069 0.000819111 0
0.175069 7.27494e-06 0
0.486035 0.000819093 0
0.754973 0.0029178 0
0.97863 0.0058052 0
1.15543 0.00882551 0
1.28699 0.0112767 0
1.37846 0.0125842 0
1.43744 0.0124452 0
1.47218 0.0108711 0
1.48971 0.00813219 0
1.49455 0.00465811 0
1.48794 0.000948382 0
1.46773 -0.0024908 0
1.42878 -0.00520121 0
1.36405 -0.00684325 0
1.26629 -0.00727788 0
1.12985 -0.00661492 0
0.951692 -0.00518042 0
0.731395 -0.00340941 0
0.470145 -0.00172949 0
0.16953 -0.000497367 0
-0.174285 0.000785013 0
0.174285 6.97201e-06 0
0.484008 0.000784995 0
0.752185 0.00279668 0
0.975714 0.00556792 0
1.15306 0.00847556 0
1.28573 0.0108498 0
1.3786 0.0121361 0
1.43896 0.0120332 0
1.47483 0.0105399 0
1.49307 0.00790861 0
1.49813 0.00455336 0
1.49126 0.000962734 0
1.47035 -0.00236619 0
1.43036 -0.00498627 0
1.36447 -0.00657115 0
1.26565 -0.00699196 0
1.12846 -0.0063585 0
0.949982 -0.00498425 0
0.729773 -0.00328461 0
0.468955 -0.00166879 0
0.16905 -0.000480825 0
-0.173534 0.00075289 0
0.173534 6.68662e-06 0
0.482066 0.000752872 0
0.74951 0.00268255 0
0.972906 0.00534402 0
1.15077 0.00814454 0
1.28449 0.0104445 0
1.3787 0.0117086 0
1.4404 0.0116384 0