# vtk DataFile Version 3.0
vtk output
ASCII
DATASET UNSTRUCTURED_GRID
POINTS 1913 double
0.045977 0 0
0.045977 0.0952381 0
0.045977 0.142857 0
0.045977 0.190476 0
0.045977 0.238095 0
0.045977 0.285714 0
0.045977 0.333333 0
0.045977 0.380952 0
0.045977 0.428571 0
0.045977 0.47619 0
0.045977 0.52381 0
0.045977 0.571429 0
0.045977 0.619048 0
0.045977 0.666667 0
0.045977 0.714286 0
0.045977 0.761905 0
0.045977 0.809524 0
0.045977 0.857143 0
0.045977 0.904762 0
0.045977 0.952381 0
0.045977 1 0
0.091954 0 0
0.091954 0.047619 0
0.091954 0.0952381 0
0.091954 0.142857 0
0.091954 0.190476 0
0.091954 0.238095 0
0.091954 0.285714 0
0.091954 0.333333 0
0.091954 0.380952 0
0.091954 0.428571 0
0.091954 0.47619 0
0.091954 0.52381 0
0.091954 0.571429 0
0.091954 0.619048 0
0.091954 0.666667 0
0.091954 0.714286 0
0.091954 0.761905 0
0.091954 0.809524 0
0.091954 0.857143 0
0.091954 0.904762 0
0.091954 0.952381 0
0.091954 1 0
0.137931 0 0
0.137931 0.047619 0
0.137931 0.0952381 0
0.137931 0.142857 0
0.137931 0.190476 0
0.137931 0.238095 0
0.137931 0.285714 0
0.137931 0.333333 0
0.137931 0.380952 0
0.137931 0.428571 0
0.137931 0.47619 0
0.137931 0.52381 0
0.137931 0.571429 0
0.137931 0.619048 0
0.137931 0.666667 0
0.137931 0.714286 0
0.137931 0.761905 0
0.137931 0.809524 0
0.137931 0.857143 0
0.137931 0.904762 0
0.137931 0.952381 0
0.137931 1 0
0.183908 0 0
0.183908 0.047619 0
0.183908 0.0952381 0
0.183908 0.142857 0
0.183908 0.190476 0
0.183908 0.238095 0
0.183908 0.285714 0
0.183908 0.333333 0
0.183908 0.380952 0
0.183908 0.428571 0
0.183908 0.47619 0
0.183908 0.52381 0
0.183908 0.571429 0
0.183908 0.619048 0
0.183908 0.666667 0
0.183908 0.714286 0
0.183908 0.761905 0
0.183908 0.809524 0
0.183908 0.857143 0
0.183908 0.904762 0
0.183908 0.952381 0
0.183908 1 0
0.229885 0 0
0.229885 0.047619 0
0.229885 0.0952381 0
0.229885 0.142857 0
0.229885 0.190476 0
0.229885 0.238095 0
0.229885 0.285714 0
0.229885 0.333333 0
0.229885 0.380952 0
0.229885 0.428571 0
0.229885 0.47619 0
0.229885 0.52381 0
0.229885 0.571429 0
0.229885 0.619048 0
0.229885 0.666667 0
0.229885 0.714286 0
0.229885 0.761905 0
0.229885 0.809524 0
0.229885 0.857143 0
0.229885 0.904762 0
0.229885 0.952381 0
0.229885 1 0
0.275862 0 0
0.275862 0.047619 0
0.275862 0.0952381 0
0.275862 0.142857 0
0.275862 0.190476 0
0.275862 0.238095 0
0.275862 0.285714 0
0.275862 0.333333 0
0.275862 0.380952 0
0.275862 0.428571 0
0.275862 0.47619 0
0.275862 0.52381 0
0.275862 0.571429 0
0.275862 0.619048 0
0.275862 0.666667 0
0.275862 0.714286 0
0.275862 0.761905 0
0.275862 0.809524 0
0.275862 0.857143 0
0.275862 0.904762 0
0.275862 0.952381 0
0.275862 1 0
0.321839 0 0
0.321839 0.047619 0
0.321839 0.0952381 0
0.321839 0.142857 0
0.321839 0.190476 0
0.321839 0.238095 0
0.321839 0.285714 0
0.321839 0.333333 0
0.321839 0.380952 0
0.321839 0.428571 0
0.321839 0.47619 0
0.321839 0.52381 0
0.321839 0.571429 0
0.321839 0.619048 0
0.321839 0.666667 0
0.321839 0.714286 0
0.321839 0.761905 0
0.321839 0.809524 0
0.321839 0.857143 0
0.321839 0.904762 0
0.321839 0.952381 0
0.321839 1 0
0.367816 0 0
0.367816 0.047619 0
0.367816 0.0952381 0
0.367816 0.142857 0
0.367816 0.190476 0
0.367816 0.238095 0
0.367816 0.285714 0
0.367816 0.333333 0
0.367816 0.380952 0
0.367816 0.428571 0
0.367816 0.47619 0
0.367816 0.52381 0
0.367816 0.571429 0
0.367816 0.619048 0
0.367816 0.666667 0
0.367816 0.714286 0
0.367816 0.761905 0
0.367816 0.809524 0
0.367816 0.857143 0
0.367816 0.904762 0
0.367816 0.952381 0
0.367816 1 0
0.413793 0 0
0.413793 0.047619 0
0.413793 0.0952381 0
0.413793 0.142857 0
0.413793 0.190476 0
0.413793 0.238095 0
0.413793 0.285714 0
0.413793 0.333333 0
0.413793 0.380952 0
0.413793 0.428571 0
0.413793 0.47619 0
0.413793 0.52381 0
0.413793 0.571429 0
0.413793 0.619048 0
0.413793 0.666667 0
0.413793 0.714286 0
0.413793 0.761905 0
0.413793 0.809524 0
0.413793 0.857143 0
0.413793 0.904762 0
0.413793 0.952381 0
0.413793 1 0
0.45977 0 0
0.45977 0.047619 0
0.45977 0.0952381 0
0.45977 0.142857 0
0.45977 0.190476 0
0.45977 0.238095 0
0.45977 0.285714 0
0.45977 0.333333 0
0.45977 0.380952 0
0.45977 0.428571 0
0.45977 0.47619 0
0.45977 0.52381 0
0.45977 0.571429 0
0.45977 0.619048 0
0.45977 0.666667 0
0.45977 0.714286 0
0.45977 0.761905 0
0.45977 0.809524 0
0.45977 0.857143 0
0.45977 0.904762 0
0.45977 0.952381 0
0.45977 1 0
0.505747 0 0
0.505747 0.047619 0
0.505747 0.0952381 0
0.505747 0.142857 0
0.505747 0.190476 0
0.505747 0.238095 0
0.505747 0.285714 0
0.505747 0.333333 0
0.505747 0.380952 0
0.505747 0.428571 0
0.505747 0.47619 0
0.505747 0.52381 0
0.505747 0.571429 0
0.505747 0.619048 0
0.505747 0.666667 0
0.505747 0.714286 0
0.505747 0.761905 0
0.505747 0.809524 0
0.505747 0.857143 0
0.505747 0.904762 0
0.505747 0.952381 0
0.505747 1 0
0.551724 0 0
0.551724 0.047619 0
0.551724 0.0952381 0
0.551724 0.142857 0
0.551724 0.190476 0
0.551724 0.238095 0
0.551724 0.285714 0
0.551724 0.333333 0
0.551724 0.380952 0
0.551724 0.428571 0
0.551724 0.47619 0
0.551724 0.52381 0
0.551724 0.571429 0
0.551724 0.619048 0
0.551724 0.666667 0
0.551724 0.714286 0
0.551724 0.761905 0
0.551724 0.809524 0
0.551724 0.857143 0
0.551724 0.904762 0
0.551724 0.952381 0
0.551724 1 0
0.597701 0 0
0.597701 0.047619 0
0.597701 0.0952381 0
0.597701 0.142857 0
0.597701 0.190476 0
0.597701 0.238095 0
0.597701 0.285714 0
0.597701 0.333333 0
0.597701 0.380952 0
0.597701 0.428571 0
0.597701 0.47619 0
0.597701 0.52381 0
0.597701 0.571429 0
0.597701 0.619048 0
0.597701 0.666667 0
0.597701 0.714286 0
0.597701 0.761905 0
0.597701 0.809524 0
0.597701 0.857143 0
0.597701 0.904762 0
0.597701 0.952381 0
0.597701 1 0
0.643678 0 0
0.643678 0.047619 0
0.643678 0.0952381 0
0.643678 0.142857 0
0.643678 0.190476 0
0.643678 0.238095 0
0.643678 0.285714 0
0.643678 0.333333 0
0.643678 0.380952 0
0.643678 0.428571 0
0.643678 0.47619 0
0.643678 0.52381 0
0.643678 0.571429 0
0.643678 0.619048 0
0.643678 0.666667 0
0.643678 0.714286 0
0.643678 0.761905 0
0.643678 0.809524 0
0.643678 0.857143 0
0.643678 0.904762 0
0.643678 0.952381 0
0.643678 1 0
0.689655 0 0
0.689655 0.047619 0
0.689655 0.0952381 0
0.689655 0.142857 0
0.689655 0.190476 0
0.689655 0.238095 0
0.689655 0.285714 0
0.689655 0.333333 0
0.689655 0.380952 0
0.689655 0.428571 0
0.689655 0.47619 0
0.689655 0.52381 0
0.689655 0.571429 0
0.689655 0.619048 0
0.689655 0.666667 0
0.689655 0.714286 0
0.689655 0.761905 0
0.689655 0.809524 0
0.689655 0.857143 0
0.689655 0.904762 0
0.689655 0.952381 0
0.689655 1 0
0.735632 0 0
0.735632 0.047619 0
0.735632 0.0952381 0
0.735632 0.142857 0
0.735632 0.190476 0
0.735632 0.238095 0
0.735632 0.285714 0
0.735632 0.333333 0
0.735632 0.380952 0
0.735632 0.428571 0
0.735632 0.47619 0
0.735632 0.52381 0
0.735632 0.571429 0
0.735632 0.619048 0
0.735632 0.666667 0
0.735632 0.714286 0
0.735632 0.761905 0
0.735632 0.809524 0
0.735632 0.857143 0
0.735632 0.904762 0
0.735632 0.952381 0
0.735632 1 0
0.781609 0 0
0.781609 0.047619 0
0.781609 0.0952381 0
0.781609 0.142857 0
0.781609 0.190476 0
0.781609 0.238095 0
0.781609 0.285714 0
0.781609 0.333333 0
0.781609 0.380952 0
0.781609 0.428571 0
0.781609 0.47619 0
0.781609 0.52381 0
0.781609 0.571429 0
0.781609 0.619048 0
0.781609 0.666667 0
0.781609 0.714286 0
0.781609 0.761905 0
0.781609 0.809524 0
0.781609 0.857143 0
0.781609 0.904762 0
0.781609 0.952381 0
0.781609 1 0
0.827586 0 0
0.827586 0.047619 0
0.827586 0.0952381 0
0.827586 0.142857 0
0.827586 0.190476 0
0.827586 0.238095 0
0.827586 0.285714 0
0.827586 0.333333 0
0.827586 0.380952 0
0.827586 0.428571 0
0.827586 0.47619 0
0.827586 0.52381 0
0.827586 0.571429 0
0.827586 0.619048 0
0.827586 0.666667 0
0.827586 0.714286 0
0.827586 0.761905 0
0.827586 0.809524 0
0.827586 0.857143 0
0.827586 0.904762 0
0.827586 0.952381 0
0.827586 1 0
0.873563 0 0
0.873563 0.047619 0
0.873563 0.0952381 0
0.873563 0.142857 0
0.873563 0.190476 0
0.873563 0.238095 0
0.873563 0.285714 0
0.873563 0.333333 0
0.873563 0.380952 0
0.873563 0.428571 0
0.873563 0.47619 0
0.873563 0.52381 0
0.873563 0.571429 0
0.873563 0.619048 0
0.873563 0.666667 0
0.873563 0.714286 0
0.873563 0.761905 0
0.873563 0.809524 0
0.873563 0.857143 0
0.873563 0.904762 0
0.873563 0.952381 0
0.873563 1 0
0.91954 0 0
0.91954 0.047619 0
0.91954 0.0952381 0
0.91954 0.142857 0
0.91954 0.190476 0
0.91954 0.238095 0
0.91954 0.285714 0
0.91954 0.333333 0
0.91954 0.380952 0
0.91954 0.428571 0
0.91954 0.47619 0
0.91954 0.52381 0
0.91954 0.571429 0
0.91954 0.619048 0
0.91954 0.666667 0
0.91954 0.714286 0
0.91954 0.761905 0
0.91954 0.809524 0
0.91954 0.857143 0
0.91954 0.904762 0
0.91954 0.952381 0
0.91954 1 0
0.965517 0 0
0.965517 0.047619 0
0.965517 0.0952381 0
0.965517 0.142857 0
0.965517 0.190476 0
0.965517 0.238095 0
0.965517 0.285714 0
0.965517 0.333333 0
0.965517 0.380952 0
0.965517 0.428571 0
0.965517 0.47619 0
0.965517 0.52381 0
0.965517 0.571429 0
0.965517 0.619048 0
0.965517 0.666667 0
0.965517 0.714286 0
0.965517 0.761905 0
0.965517 0.809524 0
0.965517 0.857143 0
0.965517 0.904762 0
0.965517 0.952381 0
0.965517 1 0
1.01149 0 0
1.01149 0.047619 0
1.01149 0.0952381 0
1.01149 0.142857 0
1.01149 0.190476 0
1.01149 0.238095 0
1.01149 0.285714 0
1.01149 0.333333 0
1.01149 0.380952 0
1.01149 0.428571 0
1.01149 0.47619 0
1.01149 0.52381 0
1.01149 0.571429 0
1.01149 0.619048 0
1.01149 0.666667 0
1.01149 0.714286 0
1.01149 0.761905 0
1.01149 0.809524 0
1.01149 0.857143 0
1.01149 0.904762 0
1.01149 0.952381 0
1.01149 1 0
1.05747 0 0
1.05747 0.047619 0
1.05747 0.0952381 0
1.05747 0.142857 0
1.05747 0.190476 0
1.05747 0.238095 0
1.05747 0.285714 0
1.05747 0.333333 0
1.05747 0.380952 0
1.05747 0.428571 0
1.05747 0.47619 0
1.05747 0.52381 0
1.05747 0.571429 0
1.05747 0.619048 0
1.05747 0.666667 0
1.05747 0.714286 0
1.05747 0.761905 0
1.05747 0.809524 0
1.05747 0.857143 0
1.05747 0.904762 0
1.05747 0.952381 0
1.05747 1 0
1.10345 0 0
1.10345 0.047619 0
1.10345 0.0952381 0
1.10345 0.142857 0
1.10345 0.190476 0
1.10345 0.238095 0
1.10345 0.285714 0
1.10345 0.333333 0
1.10345 0.380952 0
1.10345 0.428571 0
1.10345 0.47619 0
1.10345 0.52381 0
1.10345 0.571429 0
[...]
POINT_DATA 1913
VECTORS velocity[m/s] double
-0 0.171412 0
0 0.171412 0
0 0.142624 0
0 0.10582 0
0 0.078004 0
0 0.0574833 0
0 0.0419962 0
0 0.0299036 0
0 0.0200456 0
0 0.0115873 0
0 0.00389758 0
0 -0.00354443 0
0 -0.0112254 0
0 -0.0196677 0
0 -0.0295064 0
0 -0.0415859 0
0 -0.0570891 0
0 -0.0777084 0
0 -0.105823 0
0 -0.143316 0
0 -0.17305 0
-0.902399 0.193264 0
0.902399 0 0
1.09868 0.193264 0
1.108 0.191591 0
1.10043 0.146973 0
1.09421 0.108321 0
1.08996 0.0798227 0
1.08713 0.0584863 0
1.0853 0.0417929 0
1.08417 0.0280907 0
1.08355 0.0162499 0
1.08336 0.00542926 0
1.08355 -0.00506474 0
1.08416 -0.015881 0
1.0853 -0.0277155 0
1.08714 -0.0414154 0
1.09 -0.0581235 0
1.09433 -0.0795174 0
1.10075 -0.108163 0
1.10871 -0.147103 0
1.09965 -0.192053 0
0.90084 -0.193555 0
-0.715799 0.15615 0
0.715799 0 0
1.10029 0.15615 0
1.15107 0.195349 0
1.13775 0.167027 0
1.12172 0.128393 0
1.11056 0.0961598 0
1.10325 0.0710796 0
1.09853 0.0511154 0
1.0956 0.034513 0
1.094 0.0200133 0
1.09349 0.00666951 0
1.09399 -0.00630475 0
1.09559 -0.0196476 0
1.09852 -0.0341483 0
1.10327 -0.0507597 0
1.11066 -0.0707533 0
1.12199 -0.0959042 0
1.13835 -0.128272 0
1.15211 -0.167079 0
1.1011 -0.195428 0
0.71396 -0.155878 0
-0.565034 0.110891 0
0.565034 0 0
1.06244 0.110891 0
1.17842 0.173499 0
1.17505 0.167829 0
1.15284 0.13741 0
1.13477 0.106029 0
1.12253 0.0795797 0
1.11456 0.057764 0
1.1096 0.0392431 0
1.10688 0.0228375 0
1.10602 0.00760701 0
1.10688 -0.00724685 0
1.10959 -0.0224787 0
1.11456 -0.0388897 0
1.12258 -0.0574255 0
1.13494 -0.0792755 0
1.15324 -0.105791 0
1.17582 -0.137268 0
1.17948 -0.167752 0
1.06291 -0.17331 0
0.563457 -0.110453 0
-0.457966 0.0743731 0
0.457966 0 0
1.00199 0.0743731 0
1.1839 0.143378 0
1.20442 0.156394 0
1.18314 0.13726 0
1.16031 0.10994 0
1.14359 0.0841717 0
1.13244 0.0618089 0
1.12544 0.0422983 0
1.12159 0.0247211 0
1.12036 0.00823984 0
1.12158 -0.00788812 0
1.12543 -0.0243722 0
1.13246 -0.0419572 0
1.14367 -0.0614851 0
1.16054 -0.0838819 0
1.18363 -0.109705 0
1.20525 -0.137085 0
1.18485 -0.156218 0
1.00222 -0.143071 0
0.456813 -0.0739591 0
-0.386158 0.0491913 0
0.386158 0 0
0.935369 0.0491913 0
1.17133 0.114368 0
1.22289 0.139313 0
1.20952 0.130943 0
1.18519 0.109167 0
1.16518 0.0854741 0
1.15128 0.0635815 0
1.14241 0.0438554 0
1.1375 0.0257493 0
1.13593 0.00859324 0
1.1375 -0.00825348 0
1.14241 -0.0254133 0
1.15131 -0.0435285 0
1.1653 -0.0632729 0
1.18547 -0.0851973 0
1.21007 -0.108934 0
1.22373 -0.130744 0
1.17215 -0.13909 0
0.935493 -0.114047 0
0.385404 -0.0488706 0
-0.338663 0.0331272 0
0.338663 0 0
0.87244 0.0331272 0
1.14724 0.0900526 0
1.23097 0.120952 0
1.23054 0.12121 0
1.20807 0.105164 0
1.18632 0.0842834 0
1.17033 0.0635471 0
1.15989 0.0441845 0
1.15407 0.0260623 0
1.15219 0.00871056 0
1.15407 -0.00838611 0
1.1599 -0.0257421 0
1.17038 -0.0438744 0
1.18647 -0.0632559 0
1.20839 -0.0840221 0
1.23113 -0.104939 0
1.23179 -0.121008 0
1.14797 -0.120725 0
0.872564 -0.0897712 0
0.338219 -0.0329041 0
-0.306678 0.0231808 0
0.306678 0 0
0.817477 0.0231808 0
1.11741 0.0709665 0
1.23072 0.103634 0
1.24604 0.110074 0
1.22823 0.0992103 0
1.20634 0.0813771 0
1.18902 0.0621916 0
1.17739 0.0435839 0
1.17082 0.0258218 0
1.1687 0.00864303 0
1.17082 -0.00833703 0
1.17741 -0.0255206 0
1.18909 -0.0432936 0
1.20652 -0.0619208 0
1.22859 -0.0811352 0
1.24664 -0.0990008 0
1.23151 -0.109883 0
1.11809 -0.103428 0
0.817658 -0.0707424 0
0.306449 -0.0230348 0
-0.284296 0.0169756 0
0.284296 0 0
0.771339 0.0169756 0
1.08587 0.056418 0
1.2245 0.0883287 0
1.25653 0.0988056 0
1.24545 0.0922776 0
1.22487 0.0774093 0
1.20699 0.0599499 0
1.19454 0.0423334 0
1.18741 0.0251849 0
1.1851 0.00844143 0
1.18741 -0.00815662 0
1.19457 -0.0249054 0
1.20708 -0.0420658 0
1.22507 -0.0597024 0
1.24584 -0.0771905 0
1.25715 -0.0920894 0
1.22528 -0.0986356 0
1.08653 -0.0881553 0
0.771596 -0.0562501 0
0.284209 -0.0168832 0
-0.267906 0.0129687 0
0.267906 0 0
0.733257 0.0129687 0
1.05506 0.0454246 0
1.21439 0.0752605 0
1.26283 0.0881145 0
1.2598 0.0850355 0
1.24172 0.0728798 0
1.224 0.0571743 0
1.2111 0.0406695 0
1.20357 0.0242885 0
1.20112 0.00815073 0
1.20359 -0.0078893 0
1.21114 -0.0240329 0
1.2241 -0.0404267 0
1.24195 -0.0569525 0
1.26022 -0.0726867 0
1.26347 -0.0848724 0
1.21516 -0.0879711 0
1.05572 -0.0751228 0
0.733586 -0.045304 0
0.267908 -0.0129111 0
-0.255385 0.0102553 0
0.255385 0 0
0.70192 0.0102553 0
1.02625 0.0370919 0
1.20198 0.0643031 0
1.2658 0.0783435 0
1.27154 0.0779099 0
1.25689 0.0681437 0
1.23993 0.05413 0
1.22691 0.0387767 0
1.21915 0.0232422 0
1.21661 0.00780754 0
1.21917 -0.00757101 0
1.22697 -0.0230119 0
1.24006 -0.03856 0
1.25715 -0.0539351 0
1.27199 -0.0679775 0
1.26646 -0.0777735 0
1.20276 -0.0782283 0
1.02693 -0.0641989 0
0.702311 -0.0370084 0
0.255442 -0.0102199 0
-0.245483 0.00832933 0
0.245483 0 0
0.676009 0.00832933 0
0.999978 0.0307173 0
1.18842 0.0551969 0
1.26622 0.0696145 0
1.28097 0.0711505 0
1.27042 0.063438 0
1.25476 0.0510047 0
1.24191 0.0367899 0
1.23406 0.022128 0
1.23146 0.0074397 0
1.23408 -0.00722891 0
1.24198 -0.0219239 0
1.2549 -0.0366 0
1.2707 -0.050837 0
1.28145 -0.0632991 0
1.2669 -0.0710408 0
1.18921 -0.0695263 0
1.00068 -0.0551221 0
0.676446 -0.0306619 0
0.245574 -0.00830803 0
-0.237441 0.00690811 0
0.237441 0 0
0.654393 0.00690811 0
0.976343 0.0257826 0
1.1745 0.0476554 0
1.26474 0.0619261 0
1.28841 0.064888 0
1.28242 0.0589115 0
1.26848 0.0479237 0
1.25607 0.0348025 0
1.24824 0.0210039 0
1.24562 0.00706704 0
1.24827 -0.00688221 0
1.25615 -0.0208261 0
1.26865 -0.0346393 0
1.28274 -0.047783 0
1.28892 -0.058799 0
1.26544 -0.0648037 0
1.1753 -0.0618628 0
0.977064 -0.0476054 0
0.654863 -0.0257482 0
0.237553 -0.00689592 0
-0.230771 0.00582838 0
0.230771 0 0
0.636169 0.00582838 0
0.955224 0.0219149 0
1.16072 0.0414111 0
1.26188 0.0552138 0
1.29419 0.059176 0
1.29303 0.0546496 0
1.28115 0.0449657 0
1.26939 0.0328746 0
1.26169 0.019908 0
1.25909 0.00670283 0
1.26173 -0.00654363 0
1.26949 -0.019756 0
1.28134 -0.0327375 0
1.29337 -0.0448509 0
1.29472 -0.0545623 0
1.2626 -0.0591154 0
1.16154 -0.0551726 0
0.95596 -0.0413815 0
0.63666 -0.021896 0
0.230894 -0.00582224 0
-0.225144 0.00499032 0
0.225144 0 0
0.620638 0.00499032 0
0.9364 0.0188469 0
1.1474 0.0362318 0
1.25805 0.0493845 0
1.29856 0.0540207 0
1.30238 0.0506949 0
1.29282 0.0421755 0
1.28191 0.0310423 0
1.27444 0.0188634 0
1.27188 0.00635525 0
1.27449 -0.0062209 0
1.28202 -0.0187364 0
1.29304 -0.0309302 0
1.30275 -0.0420852 0
1.29912 -0.0506308 0
1.25879 -0.0539815 0
1.14822 -0.0493626 0
0.937147 -0.0362188 0
0.621141 -0.0188395 0
0.225273 -0.00498829 0
-0.220325 0.004329 0
0.220325 0 0
0.607259 0.004329 0
0.919615 0.0163856 0
1.1347 0.0319224 0
1.25358 0.0443362 0
1.30177 0.0494001 0
1.31061 0.047061 0
1.30357 0.0395746 0
1.29367 0.0293243 0
1.28652 0.0178826 0
1.28402 0.00602874 0
1.28657 -0.00591812 0
1.29379 -0.0177793 0
1.30381 -0.0292357 0
1.311 -0.0395072 0
1.30235 -0.0470183 0
1.25433 -0.04938 0
1.13553 -0.0443308 0
0.920367 -0.0319226 0
0.607767 -0.0163868 0
0.220457 -0.00432981 0
-0.216146 0.00379992 0
0.216146 0 0
0.595618 0.00379992 0
0.904614 0.0143901 0
1.12271 0.0283221 0
1.24869 0.0399686 0
1.30403 0.045277 0
1.31783 0.043744 0
1.31347 0.0371692 0
1.30472 0.0277274 0
1.29797 0.0169704 0
1.29556 0.00572517 0
1.29802 -0.00563691 0
1.30485 -0.0168894 0
1.31372 -0.0276608 0
1.31825 -0.0371228 0
1.30463 -0.0437206 0
1.24946 -0.0452736 0
1.12355 -0.0399771 0
0.905367 -0.028333 0
0.596126 -0.0143976 0
0.216276 -0.00380272 0
-0.212477 0.00337138 0
0.212477 0 0
0.585393 0.00337138 0
0.891162 0.012756 0
1.11147 0.0253001 0
1.24356 0.0361884 0
1.30551 0.0416068 0
1.32418 0.0407286 0
1.32259 0.0349555 0
1.3151 0.0262511 0
1.30882 0.016127 0
1.30653 0.00544466 0
1.30889 -0.00537725 0
1.31525 -0.0160667 0
1.32286 -0.0262047 0
1.32462 -0.0349283 0
1.30613 -0.0407224 0
1.24434 -0.041618 0
1.11231 -0.0362085 0
0.891912 -0.0253192 0
0.585897 -0.0127682 0
0.212605 -0.00337558 0
-0.209222 0.00302024 0
0.209222 0 0
0.576332 0.00302024 0
0.87905 0.011405 0
1.10095 0.0227498 0
1.23833 0.0329116 0
1.30635 0.038343 0
1.32976 0.0379939 0
1.33099 0.032924 0
1.32488 0.0248901 0
1.31914 0.0153494 0
1.31697 0.00518629 0
1.31921 -0.00513813 0
1.32504 -0.0153082 0
1.33128 -0.0248621 0
1.33022 -0.032914 0
1.30699 -0.0380029 0
1.23912 -0.0383669 0
1.10179 -0.0329413 0
0.879794 -0.0227756 0
0.576828 -0.0114208 0
0.209345 -0.0030254 0
-0.206306 0.00272928 0
0.206306 0 0
0.568236 0.00272928 0
0.868097 0.0102777 0
1.09114 0.0205854 0
1.23309 0.0300642 0
1.30669 0.0354401 0
1.33465 0.0355159 0
1.33875 0.0310617 0
1.33409 0.0236366 0
1.32895 0.0146331 0
1.32694 0.00494852 0
1.32903 -0.00491799 0
1.33427 -0.0146092 0
1.33906 -0.0236253 0
1.33513 -0.0310671 0
1.30735 -0.0355383 0
1.23388 -0.0354746 0
1.09198 -0.0301017 0
0.86883 -0.0206163 0
0.568722 -0.010296 0
0.206424 -0.0027351 0
-0.20367 0.00248555 0
0.20367 0 0
0.560948 0.00248555 0
0.858145 0.00932863 0
1.08199 0.0187374 0
1.2279 0.0275822 0
1.30662 0.0328552 0
1.33895 0.0332702 0
1.34592 0.0293545 0
1.34278 0.0224816 0
1.3383 0.0139727 0
1.33647 0.00472952 0
1.33839 -0.00471499 0
1.34297 -0.0139644 0
1.34624 -0.0224852 0
1.33945 -0.0293735 0
1.30728 -0.0333041 0
1.22869 -0.0328987 0
1.08282 -0.0276261 0
0.858866 -0.0187721 0
0.561422 -0.00934873 0
0.203784 -0.00249179 0
-0.201271 0.00227918 0
0.201271 0 0
0.554341 0.00227918 0
0.84906 0.00852243 0
1.07345 0.0171494 0
1.2228 0.0254108 0
1.30622 0.0305491 0
1.34273 0.031233 0
1.35255 0.0277879 0
1.351 0.0214157 0
1.34723 0.0133624 0
1.34559 0.00452737 0
1.34732 -0.00452727 0
1.3512 -0.0133683 0
1.35289 -0.0214327 0
1.34324 -0.0278188 0
1.30689 -0.0312768 0
1.2236 -0.0306 0
1.07427 -0.0254596 0
0.849768 -0.017187 0
0.554801 -0.00854376 0
0.201378 -0.00228568 0
-0.19907 0.00210265 0
0.19907 0 0
0.548313 0.00210265 0
0.840731 0.00783169 0
1.06547 0.0157762 0
1.21784 0.023503 0
1.30556 0.0284866 0
1.34606 0.0293817 0
1.3587 0.0263479 0
1.35877 0.02043 0
1.35576 0.0127971 0
1.35433 0.00434021 0
1.35585 -0.00435303 0
1.35899 -0.0128155 0
1.35906 -0.0204587 0
1.34658 -0.0263892 0
1.30624 -0.0294339 0
1.21864 -0.0285436 0
1.06628 -0.0235557 0
0.841422 -0.0158158 0
0.548759 -0.0078538 0
0.199171 -0.00210926 0
-0.19704 0.00195012 0
0.19704 0 0
0.542782 0.00195012 0
0.83306 0.00723484 0
1.05801 0.0145808 0
1.21303 0.0218194 0
1.30469 0.0266365 0
1.34899 0.0276959 0
1.36442 0.0250215 0
1.36614 0.0195159 0
1.36392 0.0122715 0
1.36272 0.0041663 0
1.36402 -0.00419061 0
1.36637 -0.012301 0
1.36479 -0.0195549 0
1.34952 -0.0250717 0
1.30538 -0.0277551 0
1.21383 -0.0266985 0
1.05881 -0.0218751 0
0.833735 -0.0146218 0
0.543213 -0.00725737 0
0.197134 -0.00195675 0
-0.195157 0.00181705 0
0.195157 0 0
0.537679 0.00181705 0
0.825968 0.0067149 0
1.05102 0.0135334 0
1.20838 0.0203267 0
1.30367 0.0249717 0
1.35157 0.0261568 0
1.36973 0.0237967 0
1.37314 0.0186657 0
1.37175 0.011781 0
1.37079 0.00400405 0
1.37185 -0.00403851 0
1.37337 -0.0118203 0
1.37011 -0.0187136 0
1.35211 -0.0238544 0
1.30436 -0.0262218 0
1.20917 -0.0250374 0
1.05181 -0.0203844 0
0.826625 -0.0135752 0
0.538095 -0.00673756 0
0.195245 -0.00182363 0
-0.193403 0.00169993 0
0.193403 0 0
0.53295 0.00169993 0
0.819384 0.00625836 0
1.04447 0.0126097 0
1.2039 0.0189968 0
1.30252 0.0234682 0
1.35385 0.0247478 0
1.37469 0.0226627 0
1.37979 0.0178725 0
1.37926 0.0113217 0
1.37856 0.00385208 0
1.37937 -0.00389542 0
1.38002 -0.0113695 0
1.37508 -0.017928 0
1.3544 -0.0227268 0
1.30322 -0.0248175 0
1.20468 -0.0235369 0
1.04523 -0.0190559 0
0.820023 -0.0126519 0
0.53335 -0.00628092 0
0.193484 -0.00170638 0
-0.191761 0.00159595 0
0.191761 0 0
0.528549 0.00159595 0
0.813252 0.00585445 0
1.0383 0.01179 0
1.19958 0.0178062 0
1.30129 0.0221056 0
1.35586 0.0234543 0
1.37931 0.0216099 0
1.38611 0.0171301 0
1.38647 0.0108899 0
1.38604 0.00370915 0
1.38658 -0.00376022 0
1.38636 -0.0109451 0
1.37971 -0.0171922 0
1.35642 -0.0216793 0
1.30198 -0.0235277 0
1.20035 -0.0221763 0
1.03905 -0.017866 0
0.813871 -0.0118322 0
0.528933 -0.00587675 0
0.191837 -0.00160225 0
-0.19022 0.00150291 0
0.19022 0 0
0.524437 0.00150291 0
0.807521 0.00549457 0
1.03249 0.0110582 0
1.19543 0.0167351 0
1.29999 0.0208661 0
1.35764 0.0222633 0
1.38364 0.0206298 0
1.39213 0.0164333 0
1.3934 0.0104826 0
1.39325 0.00357421 0
1.39352 -0.00363195 0
1.39239 -0.0105441 0
1.38404 -0.0165008 0
1.3582 -0.0207034 0
1.30068 -0.0223395 0
1.19619 -0.0209382 0
1.03322 -0.0167952 0
0.808121 -0.0111 0
0.524806 -0.00551645 0
0.19029 -0.00150902 0
-0.188769 0.00141908 0
0.188769 0 0
0.520583 0.00141908 0
0.802149 0.00517176 0
1.02701 0.0104009 0
1.19144 0.0157671 0
1.29864 0.0197345 0
1.35922 0.0211634 0
1.38769 0.0197149 0
1.39788 0.0157773 0
1.40007 0.0100971 0
1.40021 0.00344638 0
1.4002 -0.0035098 0
1.39814 -0.0101639 0
1.3881 -0.0158494 0
1.35978 -0.0197919 0
1.29932 -0.0212416 0
1.19219 -0.0198073 0
1.02773 -0.015827 0
0.80273 -0.0104421 0
0.520937 -0.00519311 0
0.188833 -0.00142497 0
-0.187399 0.00134304 0
0.187399 0 0
0.51696 0.00134304 0
0.7971 0.00488041 0
1.02183 0.0098074 0
1.18761 0.0148882 0
1.29726 0.0186977 0
1.36062 0.0201447 0
1.39149 0.0188587 0
1.40336 0.0151581 0
1.40649 0.00973121 0
1.40692 0.00332489 0
1.40662 -0.00339308 0
1.40363 -0.00980237 0
1.39191 -0.0152338 0
1.36118 -0.0189383 0
1.29794 -0.0202243 0
1.18834 -0.0187708 0
1.02253 -0.0149475 0
0.797662 -0.00984779 0
0.517299 -0.00490114 0
0.187457 -0.0013487 0
-0.186102 0.00127367 0
0.186102 0 0
0.513545 0.00127367 0
0.792343 0.00461594 0
1.01692 0.00926867 0
1.18393 0.0140868 0
1.29586 0.0177445 0
1.36186 0.0191986 0
1.39507 0.0180555 0
1.4086 0.0145722 0
1.41268 0.00938296 0
1.41341 0.00320909 0
1.41281 -0.00328125 0
1.40887 -0.00945771 0
1.39548 -0.0146509 0
1.36242 -0.018137 0
1.29653 -0.019279 0
1.18465 -0.0178173 0
1.0176 -0.0141453 0
0.792886 -0.00930809 0
0.513869 -0.004636 0
0.186155 -0.00127908 0
-0.184873 0.00121005 0
0.184873 0 0
0.510318 0.00121005 0
0.787851 0.00437462 0
1.01227 0.00877728 0
1.1804 0.013353 0
1.29446 0.0168652 0
1.36296 0.0183177 0
1.39843 0.0173002 0
1.41361 0.0140166 0
1.41864 0.00905074 0
1.41968 0.00309844 0
1.41877 -0.00317383 0
1.41389 -0.00912837 0
1.39885 -0.0140975 0
1.36352 -0.017383 0
1.29512 -0.0183982 0
1.18111 -0.0169374 0
1.01293 -0.0134104 0
0.788375 -0.00881561 0
0.510628 -0.00439395 0
0.18492 -0.0012152 0
-0.183704 0.00115142 0
0.183704 0 0
0.507262 0.00115142 0
0.7836 0.00415337 0
1.00785 0.0083271 0
1.17701 0.0126786 0
1.29305 0.0160516 0
1.36395 0.0174952 0
1.4016 0.0165885 0
1.41841 0.0134887 0
1.42439 0.00873317 0
1.42573 0.0029925 0
1.42452 -0.00307044 0
1.41869 -0.00881302 0
1.40202 -0.0135712 0
1.3645 -0.016672 0
1.29371 -0.0175756 0
1.1777 -0.0161228 0
1.0085 -0.0127346 0
0.784106 -0.00836423 0
0.507559 -0.00417194 0
0.183747 -0.00115632 0
-0.182593 0.00109719 0
0.182593 0 0
0.504364 0.00109719 0
0.77957 0.00394964 0
1.00365 0.00791294 0
1.17375 0.0120564 0
1.29166 0.0152964 0
1.36482 0.0167256 0
1.40459 0.0159166 0
1.423 0.0129863 0
1.42993 0.00842909 0
1.43159 0.00289088 0
1.43007 -0.00297077 0
1.42328 -0.00851057 0
1.40501 -0.0130697 0
1.36538 -0.0160003 0
1.29231 -0.0168054 0
1.17443 -0.0153664 0
1.00428 -0.0121109 0
0.780058 -0.00794881 0
0.504647 -0.00396743 0
0.18263 -0.00110183 0
-0.181533 0.00104682 0
0.181533 0 0
0.50161 0.00104682 0
0.775744 0.00376131 0
0.99965 0.0075305 0
1.17062 0.0114805 0
1.29028 0.0145936 0
1.3656 0.0160039 0
1.40742 0.0152811 0
1.4274 0.0125073 0
1.43528 0.00813749 0
1.43725 0.00279326 0
1.43541 -0.00287455 0
1.42768 -0.00822007 0
1.40784 -0.0125913 0
1.36615 -0.0153646 0
1.29092 -0.0160827 0
1.17129 -0.0146622 0
1.00026 -0.0115335 0
0.776214 -0.00756504 0
0.50188 -0.00377831 0
0.181566 -0.00105121 0
-0.180522 0.000999899 0
0.180522 0 0
0.498989 0.000999899 0
0.772105 0.00358661 0
0.995836 0.00717612 0
1.16762 0.0109457 0
1.28892 0.0139378 0
1.3663 0.0153255 0
1.4101 0.014679 0
1.43162 0.01205 0
1.44044 0.00785752 0
1.44272 0.00269937 0
1.44058 -0.00278157 0
1.4319 -0.00794072 0
1.41052 -0.0121341 0
1.36685 -0.0147619 0
1.28955 -0.0154031 0
1.16827 -0.0140047 0
0.996426 -0.010997 0
0.772558 -0.0072093 0
0.499247 -0.00360281 0
0.180551 -0.00100403 0
-0.179557 0.000956059 0
0.179557 0 0
0.496491 0.000956059 0
0.768639 0.00342403 0
0.992197 0.0068467 0
1.16473 0.0104478 0
1.28758 0.0133243 0
1.36693 0.0146868 0
1.41264 0.0141077 0
1.43567 0.011613 0
1.44542 0.00758844 0
1.44801 0.00260896 0
1.44556 -0.00269163 0
1.43595 -0.00767184 0
1.41306 -0.0116968 0
1.36747 -0.0141897 0
1.2882 -0.0147629 0
1.16536 -0.0133894 0
0.992769 -0.0104974 0
0.769076 -0.00687849 0
0.496738 -0.00343943 0
0.179582 -0.000959948 0
-0.178634 0.000914991 0
0.178634 0 0
0.494108 0.000914991 0
0.765334 0.00327228 0
0.98872 0.00653958 0
1.16195 0.00998294 0
1.28626 0.0127492 0
1.36748 0.0140843 0
1.41505 0.0135649 0
1.43955 0.0111949 0
1.45022 0.0073296 0
1.45313 0.00252185 0
1.45037 -0.0026046 0
1.43984 -0.00741282 0
1.41547 -0.011278 0
1.36802 -0.0136457 0
1.28687 -0.0141587 0
1.16257 -0.0128124 0
0.989275 -0.0100306 0
0.765756 -0.00656999 0
0.494344 -0.0032869 0
0.178655 -0.000918638 0
-0.177751 0.000876429 0
0.177751 0 0
0.491832 0.000876429 0
0.76218 0.00313029 0
0.985395 0.00625251 0
1.15928 0.00954781 0
1.28498 0.0122089 0
1.36799 0.0135149 0
1.41733 0.0130486 0
1.44329 0.0107945 0
1.45487 0.00708044 0
1.45808 0.00243785 0
1.45501 -0.00252032 0
1.44357 -0.00716315 0
1.41775 -0.0108767 0
1.36851 -0.0131279 0
1.28557 -0.0135875 0
1.15988 -0.01227 0
0.985934 -0.00959366 0
0.762586 -0.00628152 0
0.492057 -0.00314412 0
0.177768 -0.000879842 0
-0.176904 0.000840143 0
0.176904 0 0
0.489656 0.000840143 0
0.759165 0.00299709 0
0.982213 0.00598351 0
1.15671 0.00913962 0
1.28371 0.0117002 0
1.36844 0.0129761 0
1.41951 0.0125567 0
1.44687 0.0104107 0
1.45935 0.00684045 0
1.46287 0.00235682 0
1.45949 -0.00243869 0
1.44715 -0.00692234 0
1.41992 -0.0104917 0
1.36896 -0.0126344 0
1.2843 -0.0130466 0
1.1573 -0.0117593 0
0.982736 -0.00918357 0
0.759556 -0.00601112 0
0.489871 -0.00301016 0
0.176919 -0.000843328 0
-0.176093 0.000805931 0
0.176093 0 0
0.487574 0.000805931 0
0.756282 0.00287187 0
0.979166 0.00573086 0
1.15424 0.00875586 0
1.28248 0.0112205 0
1.36884 0.0124654 0
1.42158 0.0120878 0
1.45032 0.0100425 0
1.46368 0.00660918 0
1.4675 0.00227862 0
1.46382 -0.00235961 0
1.4506 -0.00668999 0
1.42199 -0.0101221 0
1.36936 -0.0121637 0
1.28306 -0.0125338 0
1.15481 -0.0112774 0
0.979673 -0.00879791 0
0.756659 -0.0057571 0
0.487779 -0.00288419 0
0.176104 -0.000808895 0
-0.175315 0.000773613 0
0.175315 0 0
0.485579 0.000773613 0
0.753521 0.0027539 0
0.976245 0.00549308 0
1.15186 0.00839435 0
1.28128 0.0107673 0
1.36921 0.0119806 0
1.42356 0.0116402 0
1.45363 0.00968921 0
1.46786 0.00638622 0
1.47197 0.00220312 0
1.468 -0.00228297 0
1.45391 -0.00646569 0
1.42396 -0.00976713 0
1.36971 -0.0117141 0
1.28184 -0.0120469 0
1.15242 -0.010822 0
0.976737 -0.0084345 0
0.753885 -0.00551795 0
0.485775 -0.00276548 0
0.175323 -0.000776362 0
-0.174568 0.00074303 0
0.174568 0 0
0.483667 0.00074303 0
0.750876 0.00264254 0
0.973444 0.00526883 0
1.14957 0.00805316 0
1.28011 0.0103384 0
1.36953 0.01152 0
1.42544 0.0112126 0
1.45682 0.00934985 0
1.4719 0.00617117 0
1.47631 0.00213021 0
1.47204 -0.00220868 0
1.4571 -0.00624911 0
1.42584 -0.00942595 0
1.37003 -0.0112844 0
1.28066 -0.0115839 0
1.15011 -0.0103909 0
0.973921 -0.0080914 0
0.751228 -0.00529235 0
0.483855 -0.0026534 0
0.174574 -0.000745571 0
-0.173851 0.000714036 0
0.173851 0 0
0.481833 0.000714036 0
0.748341 0.00253722 0
0.970756 0.00505694 0
1.14736 0.00773055 0
1.27897 0.00993195 0
1.36983 0.0110816 0
1.42724 0.0108037 0
1.45989 0.00902372 0
1.4758 0.00596369 0
1.48049 0.00205978 0
1.47594 -0.00213667 0
1.46017 -0.00603989 0
1.42764 -0.00909783 0
1.37032 -0.0108732 0
1.27951 -0.0111432 0
1.14789 -0.00998211 0
0.971218 -0.00776689 0
0.74868 -0.00507913 0
0.482013 -0.00254738 0
0.173854 -0.000716375 0
-0.173161 0.0006865 0
0.173161 0 0
0.480073 0.0006865 0
0.745908 0.00243743 0
0.968174 0.00485635 0
1.14524 0.00742496 0
1.27786 0.00954606 0
1.3701 0.010664 0
1.42896 0.0104123 0
1.46285 0.0087101 0
1.47957 0.00576343 0
1.48455 0.00199173 0