# vtk DataFile Version 3.0
vtk output
ASCII
DATASET UNSTRUCTURED_GRID
POINTS 1913 double
0.045977 0 0
0.045977 0.0952381 0
0.045977 0.142857 0
0.045977 0.190476 0
0.045977 0.238095 0
0.045977 0.285714 0
0.045977 0.333333 0
0.045977 0.380952 0
0.045977 0.428571 0
0.045977 0.47619 0
0.045977 0.52381 0
0.045977 0.571429 0
0.045977 0.619048 0
0.045977 0.666667 0
0.045977 0.714286 0
0.045977 0.761905 0
0.045977 0.809524 0
0.045977 0.857143 0
0.045977 0.904762 0
0.045977 0.952381 0
0.045977 1 0
0.091954 0 0
0.091954 0.047619 0
0.091954 0.0952381 0
0.091954 0.142857 0
0.091954 0.190476 0
0.091954 0.238095 0
0.091954 0.285714 0
0.091954 0.333333 0
0.091954 0.380952 0
0.091954 0.428571 0
0.091954 0.47619 0
0.091954 0.52381 0
0.091954 0.571429 0
0.091954 0.619048 0
0.091954 0.666667 0
0.091954 0.714286 0
0.091954 0.761905 0
0.091954 0.809524 0
0.091954 0.857143 0
0.091954 0.904762 0
0.091954 0.952381 0
0.091954 1 0
0.137931 0 0
0.137931 0.047619 0
0.137931 0.0952381 0
0.137931 0.142857 0
0.137931 0.190476 0
0.137931 0.238095 0
0.137931 0.285714 0
0.137931 0.333333 0
0.137931 0.380952 0
0.137931 0.428571 0
0.137931 0.47619 0
0.137931 0.52381 0
0.137931 0.571429 0
0.137931 0.619048 0
0.137931 0.666667 0
0.137931 0.714286 0
0.137931 0.761905 0
0.137931 0.809524 0
0.137931 0.857143 0
0.137931 0.904762 0
0.137931 0.952381 0
0.137931 1 0
0.183908 0 0
0.183908 0.047619 0
0.183908 0.0952381 0
0.183908 0.142857 0
0.183908 0.190476 0
0.183908 0.238095 0
0.183908 0.285714 0
0.183908 0.333333 0
0.183908 0.380952 0
0.183908 0.428571 0
0.183908 0.47619 0
0.183908 0.52381 0
0.183908 0.571429 0
0.183908 0.619048 0
0.183908 0.666667 0
0.183908 0.714286 0
0.183908 0.761905 0
0.183908 0.809524 0
0.183908 0.857143 0
0.183908 0.904762 0
0.183908 0.952381 0
0.183908 1 0
0.229885 0 0
0.229885 0.047619 0
0.229885 0.0952381 0
0.229885 0.142857 0
0.229885 0.190476 0
0.229885 0.238095 0
0.229885 0.285714 0
0.229885 0.333333 0
0.229885 0.380952 0
0.229885 0.428571 0
0.229885 0.47619 0
0.229885 0.52381 0
0.229885 0.571429 0
0.229885 0.619048 0
0.229885 0.666667 0
0.229885 0.714286 0
0.229885 0.761905 0
0.229885 0.809524 0
0.229885 0.857143 0
0.229885 0.904762 0
0.229885 0.952381 0
0.229885 1 0
0.275862 0 0
0.275862 0.047619 0
0.275862 0.0952381 0
0.275862 0.142857 0
0.275862 0.190476 0
0.275862 0.238095 0
0.275862 0.285714 0
0.275862 0.333333 0
0.275862 0.380952 0
0.275862 0.428571 0
0.275862 0.47619 0
0.275862 0.52381 0
0.275862 0.571429 0
0.275862 0.619048 0
0.275862 0.666667 0
0.275862 0.714286 0
0.275862 0.761905 0
0.275862 0.809524 0
0.275862 0.857143 0
0.275862 0.904762 0
0.275862 0.952381 0
0.275862 1 0
0.321839 0 0
0.321839 0.047619 0
0.321839 0.0952381 0
0.321839 0.142857 0
0.321839 0.190476 0
0.321839 0.238095 0
0.321839 0.285714 0
0.321839 0.333333 0
0.321839 0.380952 0
0.321839 0.428571 0
0.321839 0.47619 0
0.321839 0.52381 0
0.321839 0.571429 0
0.321839 0.619048 0
0.321839 0.666667 0
0.321839 0.714286 0
0.321839 0.761905 0
0.321839 0.809524 0
0.321839 0.857143 0
0.321839 0.904762 0
0.321839 0.952381 0
0.321839 1 0
0.367816 0 0
0.367816 0.047619 0
0.367816 0.0952381 0
0.367816 0.142857 0
0.367816 0.190476 0
0.367816 0.238095 0
0.367816 0.285714 0
0.367816 0.333333 0
0.367816 0.380952 0
0.367816 0.428571 0
0.367816 0.47619 0
0.367816 0.52381 0
0.367816 0.571429 0
0.367816 0.619048 0
0.367816 0.666667 0
0.367816 0.714286 0
0.367816 0.761905 0
0.367816 0.809524 0
0.367816 0.857143 0
0.367816 0.904762 0
0.367816 0.952381 0
0.367816 1 0
0.413793 0 0
0.413793 0.047619 0
0.413793 0.0952381 0
0.413793 0.142857 0
0.413793 0.190476 0
0.413793 0.238095 0
0.413793 0.285714 0
0.413793 0.333333 0
0.413793 0.380952 0
0.413793 0.428571 0
0.413793 0.47619 0
0.413793 0.52381 0
0.413793 0.571429 0
0.413793 0.619048 0
0.413793 0.666667 0
0.413793 0.714286 0
0.413793 0.761905 0
0.413793 0.809524 0
0.413793 0.857143 0
0.413793 0.904762 0
0.413793 0.952381 0
0.413793 1 0
0.45977 0 0
0.45977 0.047619 0
0.45977 0.0952381 0
0.45977 0.142857 0
0.45977 0.190476 0
0.45977 0.238095 0
0.45977 0.285714 0
0.45977 0.333333 0
0.45977 0.380952 0
0.45977 0.428571 0
0.45977 0.47619 0
0.45977 0.52381 0
0.45977 0.571429 0
0.45977 0.619048 0
0.45977 0.666667 0
0.45977 0.714286 0
0.45977 0.761905 0
0.45977 0.809524 0
0.45977 0.857143 0
0.45977 0.904762 0
0.45977 0.952381 0
0.45977 1 0
0.505747 0 0
0.505747 0.047619 0
0.505747 0.0952381 0
0.505747 0.142857 0
0.505747 0.190476 0
0.505747 0.238095 0
0.505747 0.285714 0
0.505747 0.333333 0
0.505747 0.380952 0
0.505747 0.428571 0
0.505747 0.47619 0
0.505747 0.52381 0
0.505747 0.571429 0
0.505747 0.619048 0
0.505747 0.666667 0
0.505747 0.714286 0
0.505747 0.761905 0
0.505747 0.809524 0
0.505747 0.857143 0
0.505747 0.904762 0
0.505747 0.952381 0
0.505747 1 0
0.551724 0 0
0.551724 0.047619 0
0.551724 0.0952381 0
0.551724 0.142857 0
0.551724 0.190476 0
0.551724 0.238095 0
0.551724 0.285714 0
0.551724 0.333333 0
0.551724 0.380952 0
0.551724 0.428571 0
0.551724 0.47619 0
0.551724 0.52381 0
0.551724 0.571429 0
0.551724 0.619048 0
0.551724 0.666667 0
0.551724 0.714286 0
0.551724 0.761905 0
0.551724 0.809524 0
0.551724 0.857143 0
0.551724 0.904762 0
0.551724 0.952381 0
0.551724 1 0
0.597701 0 0
0.597701 0.047619 0
0.597701 0.0952381 0
0.597701 0.142857 0
0.597701 0.190476 0
0.597701 0.238095 0
0.597701 0.285714 0
0.597701 0.333333 0
0.597701 0.380952 0
0.597701 0.428571 0
0.597701 0.47619 0
0.597701 0.52381 0
0.597701 0.571429 0
0.597701 0.619048 0
0.597701 0.666667 0
0.597701 0.714286 0
0.597701 0.761905 0
0.597701 0.809524 0
0.597701 0.857143 0
0.597701 0.904762 0
0.597701 0.952381 0
0.597701 1 0
0.643678 0 0
0.643678 0.047619 0
0.643678 0.0952381 0
0.643678 0.142857 0
0.643678 0.190476 0
0.643678 0.238095 0
0.643678 0.285714 0
0.643678 0.333333 0
0.643678 0.380952 0
0.643678 0.428571 0
0.643678 0.47619 0
0.643678 0.52381 0
0.643678 0.571429 0
0.643678 0.619048 0
0.643678 0.666667 0
0.643678 0.714286 0
0.643678 0.761905 0
0.643678 0.809524 0
0.643678 0.857143 0
0.643678 0.904762 0
0.643678 0.952381 0
0.643678 1 0
0.689655 0 0
0.689655 0.047619 0
0.689655 0.0952381 0
0.689655 0.142857 0
0.689655 0.190476 0
0.689655 0.238095 0
0.689655 0.285714 0
0.689655 0.333333 0
0.689655 0.380952 0
0.689655 0.428571 0
0.689655 0.47619 0
0.689655 0.52381 0
0.689655 0.571429 0
0.689655 0.619048 0
0.689655 0.666667 0
0.689655 0.714286 0
0.689655 0.761905 0
0.689655 0.809524 0
0.689655 0.857143 0
0.689655 0.904762 0
0.689655 0.952381 0
0.689655 1 0
0.735632 0 0
0.735632 0.047619 0
0.735632 0.0952381 0
0.735632 0.142857 0
0.735632 0.190476 0
0.735632 0.238095 0
0.735632 0.285714 0
0.735632 0.333333 0
0.735632 0.380952 0
0.735632 0.428571 0
0.735632 0.47619 0
0.735632 0.52381 0
0.735632 0.571429 0
0.735632 0.619048 0
0.735632 0.666667 0
0.735632 0.714286 0
0.735632 0.761905 0
0.735632 0.809524 0
0.735632 0.857143 0
0.735632 0.904762 0
0.735632 0.952381 0
0.735632 1 0
0.781609 0 0
0.781609 0.047619 0
0.781609 0.0952381 0
0.781609 0.142857 0
0.781609 0.190476 0
0.781609 0.238095 0
0.781609 0.285714 0
0.781609 0.333333 0
0.781609 0.380952 0
0.781609 0.428571 0
0.781609 0.47619 0
0.781609 0.52381 0
0.781609 0.571429 0
0.781609 0.619048 0
0.781609 0.666667 0
0.781609 0.714286 0
0.781609 0.761905 0
0.781609 0.809524 0
0.781609 0.857143 0
0.781609 0.904762 0
0.781609 0.952381 0
0.781609 1 0
0.827586 0 0
0.827586 0.047619 0
0.827586 0.0952381 0
0.827586 0.142857 0
0.827586 0.190476 0
0.827586 0.238095 0
0.827586 0.285714 0
0.827586 0.333333 0
0.827586 0.380952 0
0.827586 0.428571 0
0.827586 0.47619 0
0.827586 0.52381 0
0.827586 0.571429 0
0.827586 0.619048 0
0.827586 0.666667 0
0.827586 0.714286 0
0.827586 0.761905 0
0.827586 0.809524 0
0.827586 0.857143 0
0.827586 0.904762 0
0.827586 0.952381 0
0.827586 1 0
0.873563 0 0
0.873563 0.047619 0
0.873563 0.0952381 0
0.873563 0.142857 0
0.873563 0.190476 0
0.873563 0.238095 0
0.873563 0.285714 0
0.873563 0.333333 0
0.873563 0.380952 0
0.873563 0.428571 0
0.873563 0.47619 0
0.873563 0.52381 0
0.873563 0.571429 0
0.873563 0.619048 0
0.873563 0.666667 0
0.873563 0.714286 0
0.873563 0.761905 0
0.873563 0.809524 0
0.873563 0.857143 0
0.873563 0.904762 0
0.873563 0.952381 0
0.873563 1 0
0.91954 0 0
0.91954 0.047619 0
0.91954 0.0952381 0
0.91954 0.142857 0
0.91954 0.190476 0
0.91954 0.238095 0
0.91954 0.285714 0
0.91954 0.333333 0
0.91954 0.380952 0
0.91954 0.428571 0
0.91954 0.47619 0
0.91954 0.52381 0
0.91954 0.571429 0
0.91954 0.619048 0
0.91954 0.666667 0
0.91954 0.714286 0
0.91954 0.761905 0
0.91954 0.809524 0
0.91954 0.857143 0
0.91954 0.904762 0
0.91954 0.952381 0
0.91954 1 0
0.965517 0 0
0.965517 0.047619 0
0.965517 0.0952381 0
0.965517 0.142857 0
0.965517 0.190476 0
0.965517 0.238095 0
0.965517 0.285714 0
0.965517 0.333333 0
0.965517 0.380952 0
0.965517 0.428571 0
0.965517 0.47619 0
0.965517 0.52381 0
0.965517 0.571429 0
0.965517 0.619048 0
0.965517 0.666667 0
0.965517 0.714286 0
0.965517 0.761905 0
0.965517 0.809524 0
0.965517 0.857143 0
0.965517 0.904762 0
0.965517 0.952381 0
0.965517 1 0
1.01149 0 0
1.01149 0.047619 0
1.01149 0.0952381 0
1.01149 0.142857 0
1.01149 0.190476 0
1.01149 0.238095 0
1.01149 0.285714 0
1.01149 0.333333 0
1.01149 0.380952 0
1.01149 0.428571 0
1.01149 0.47619 0
1.01149 0.52381 0
1.01149 0.571429 0
1.01149 0.619048 0
1.01149 0.666667 0
1.01149 0.714286 0
1.01149 0.761905 0
1.01149 0.809524 0
1.01149 0.857143 0
1.01149 0.904762 0
1.01149 0.952381 0
1.01149 1 0
1.05747 0 0
1.05747 0.047619 0
1.05747 0.0952381 0
1.05747 0.142857 0
1.05747 0.190476 0
1.05747 0.238095 0
1.05747 0.285714 0
1.05747 0.333333 0
1.05747 0.380952 0
1.05747 0.428571 0
1.05747 0.47619 0
1.05747 0.52381 0
1.05747 0.571429 0
1.05747 0.619048 0
1.05747 0.666667 0
1.05747 0.714286 0
1.05747 0.761905 0
1.05747 0.809524 0
1.05747 0.857143 0
1.05747 0.904762 0
1.05747 0.952381 0
1.05747 1 0
1.10345 0 0
1.10345 0.047619 0
1.10345 0.0952381 0
1.10345 0.142857 0
1.10345 0.190476 0
1.10345 0.238095 0
1.10345 0.285714 0
1.10345 0.333333 0
1.10345 0.380952 0
1.10345 0.428571 0
1.10345 0.47619 0
1.10345 0.52381 0
1.10345 0.571429 0
[...]
POINT_DATA 1913
VECTORS velocity[m/s] double
-0 0.209459 0
0 0.209459 0
0 0.209389 0
0 0.180977 0
0 0.150646 0
0 0.121888 0
0 0.0948672 0
0 0.0692451 0
0 0.0446038 0
0 0.0205289 0
0 -0.00337946 0
0 -0.027522 0
0 -0.0523268 0
0 -0.0782853 0
0 -0.105999 0
0 -0.136247 0
0 -0.170072 0
0 -0.2089 0
0 -0.254233 0
0 -0.302714 0
0 -0.309873 0
-0.872519 0.185234 0
0.872519 0.00163376 0
1.07482 0.185234 0
1.10219 0.208827 0
1.10404 0.184432 0
1.10252 0.153032 0
1.10085 0.12324 0
1.09949 0.095664 0
1.09855 0.0697315 0
1.098 0.0448797 0
1.09784 0.0206356 0
1.09807 -0.00342519 0
1.0987 -0.0277153 0
1.09982 -0.0526717 0
1.10151 -0.0787969 0
1.10396 -0.106716 0
1.10741 -0.13727 0
1.11224 -0.171642 0
1.11852 -0.211223 0
1.12156 -0.255045 0
1.08167 -0.286299 0
0.775566 -0.235233 0
-0.69525 0.144679 0
0.69525 0.00129611 0
1.05205 0.144679 0
1.12574 0.189906 0
1.13436 0.178672 0
1.13129 0.151223 0
1.12747 0.122274 0
1.12453 0.0949547 0
1.12254 0.0692341 0
1.12141 0.0445998 0
1.12107 0.0205742 0
1.12152 -0.00325972 0
1.1228 -0.0272969 0
1.12504 -0.0519481 0
1.12847 -0.0776806 0
1.13346 -0.10507 0
1.1406 -0.134856 0
1.15046 -0.167838 0
1.16084 -0.203664 0
1.15174 -0.235331 0
1.03236 -0.234766 0
0.548445 -0.146329 0
-0.556812 0.105545 0
0.556812 0.000944871 0
1.00838 0.105545 0
1.13659 0.161755 0
1.16086 0.164697 0
1.15924 0.144607 0
1.15385 0.118645 0
1.14937 0.0926583 0
1.14633 0.0677623 0
1.14461 0.0437844 0
1.14408 0.0203502 0
1.14473 -0.00290323 0
1.1466 -0.0263202 0
1.14989 -0.0502525 0
1.15492 -0.0750881 0
1.16222 -0.101274 0
1.17245 -0.129256 0
1.18505 -0.158964 0
1.19141 -0.187548 0
1.15119 -0.203087 0
0.946976 -0.176817 0
0.407161 -0.0836911 0
-0.455819 0.0738514 0
0.455819 0.000660514 0
0.954106 0.0738514 0
1.13375 0.132245 0
1.18026 0.146269 0
1.1843 0.134313 0
1.17894 0.112671 0
1.1734 0.088926 0
1.16948 0.0654158 0
1.16723 0.0424907 0
1.16653 0.0199765 0
1.16734 -0.00238991 0
1.16971 -0.0248752 0
1.17387 -0.0477481 0
1.1802 -0.0712869 0
1.18924 -0.0957528 0
1.20113 -0.121181 0
1.21265 -0.146471 0
1.20641 -0.166651 0
1.12583 -0.167906 0
0.857062 -0.128078 0
0.326356 -0.0478453 0
-0.385152 0.0504911 0
0.385152 0.000451219 0
0.897726 0.0504911 0
1.12021 0.105568 0
1.1918 0.126718 0
1.2052 0.122018 0
1.20186 0.105093 0
1.1961 0.0841204 0
1.19161 0.062396 0
1.18897 0.0408241 0
1.18813 0.0194835 0
1.18905 -0.00175986 0
1.19179 -0.0230794 0
1.1966 -0.0446498 0
1.20382 -0.0666273 0
1.21379 -0.0890661 0
1.22555 -0.111564 0
1.23213 -0.132107 0
1.20763 -0.144456 0
1.08738 -0.135496 0
0.779596 -0.0918436 0
0.280161 -0.0286796 0
-0.336838 0.0343598 0
0.336838 0.000306839 0
0.844548 0.0343598 0
1.09979 0.0833374 0
1.19634 0.108171 0
1.22154 0.109186 0
1.22211 0.0967184 0
1.21708 0.0786816 0
1.21244 0.058952 0
1.20958 0.0389162 0
1.20864 0.018913 0
1.20963 -0.00105288 0
1.21262 -0.0210584 0
1.21781 -0.0411855 0
1.22549 -0.0614716 0
1.23551 -0.08177 0
1.24538 -0.101282 0
1.24406 -0.117323 0
1.19898 -0.123241 0
1.04523 -0.108101 0
0.71861 -0.0663066 0
0.252471 -0.0183245 0
-0.303959 0.023712 0
0.30396 0.000211605 0
0.79726 0.023712 0
1.07581 0.0656984 0
1.19536 0.0916892 0
1.23358 0.0968208 0
1.23953 0.0882204 0
1.23613 0.0730167 0
1.23179 0.055326 0
1.22889 0.0368984 0
1.22792 0.0183089 0
1.22895 -0.000304545 0
1.23205 -0.0189293 0
1.2374 -0.0375641 0
1.24508 -0.0561402 0
1.25435 -0.0743318 0
1.26087 -0.0910172 0
1.24977 -0.103107 0
1.18436 -0.104174 0
1.00488 -0.0859889 0
0.672283 -0.0486203 0
0.234778 -0.0124255 0
-0.28127 0.0168581 0
0.28127 0.000150336 0
0.756721 0.0168581 0
1.05072 0.0521066 0
1.19041 0.0776127 0
1.24188 0.0854886 0
1.25421 0.0800642 0
1.25321 0.0674414 0
1.24958 0.0517172 0
1.24684 0.0348827 0
1.24589 0.0177099 0
1.24693 0.000455477 0
1.25005 -0.0167901 0
1.25534 -0.0339562 0
1.26265 -0.0508841 0
1.27046 -0.0670965 0
1.27254 -0.0812307 0
1.2508 -0.0900246 0
1.1668 -0.087672 0
0.968796 -0.0685723 0
0.637336 -0.036348 0
0.222781 -0.00883712 0
-0.265138 0.0124651 0
0.265138 0.000111086 0
0.722689 0.0124651 0
1.02609 0.041793 0
1.1828 0.0658767 0
1.24712 0.0754301 0
1.2664 0.0725223 0
1.26839 0.062167 0
1.26583 0.0482683 0
1.26342 0.0329523 0
1.26255 0.0171448 0
1.26358 0.00120376 0
1.26662 -0.0147159 0
1.27168 -0.0304878 0
1.2783 -0.0458792 0
1.28411 -0.06029 0
1.28104 -0.0721929 0
1.24853 -0.0783326 0
1.14836 -0.0737236 0
0.937683 -0.055018 0
0.610774 -0.0277327 0
0.214249 -0.00652332 0
-0.253211 0.00960582 0
0.253211 8.55545e-05 0
0.694372 0.00960581 0
1.00284 0.034007 0
1.17358 0.0562254 0
1.24993 0.0666809 0
1.27639 0.0657198 0
1.28181 0.0573124 0
1.28062 0.045067 0
1.27868 0.0311598 0
1.27794 0.0166312 0
1.27895 0.00192259 0
1.28185 -0.0127586 0
1.28654 -0.0272421 0
1.29222 -0.0412348 0
1.2956 -0.0540397 0
1.28696 -0.0640318 0
1.24408 -0.0680901 0
1.1303 -0.0621077 0
0.911338 -0.0445176 0
0.590297 -0.0215892 0
0.207951 -0.00496442 0
-0.244019 0.0076877 0
0.244019 6.84371e-05 0
0.670813 0.00768769 0
0.981384 0.0281154 0
1.16349 0.048342 0
1.25086 0.0591638 0
1.28451 0.0596826 0
1.29363 0.0529267 0
1.29405 0.0421552 0
1.29271 0.0295318 0
1.29214 0.0161767 0
1.29313 0.00259915 0
1.29583 -0.0109504 0
1.30005 -0.0242665 0
1.30458 -0.0370068 0
1.30525 -0.0484002 0
1.29088 -0.056779 0
1.2383 -0.0592392 0
1.11332 -0.0525224 0
0.889201 -0.0363834 0
0.574245 -0.0171361 0
0.203158 -0.00388077 0
-0.236663 0.00635126 0
0.236663 5.65178e-05 0
0.65109 0.00635125 0
0.961855 0.023624 0
1.15304 0.0419152 0
1.25036 0.052749 0
1.29104 0.0543778 0
1.30404 0.049012 0
1.30624 0.0395424 0
1.3056 0.0280748 0
1.30525 0.0157809 0
1.30621 0.00322471 0
1.30869 -0.00930736 0
1.31235 -0.0215808 0
1.31558 -0.0332121 0
1.31334 -0.0433758 0
1.29326 -0.0504055 0
1.23182 -0.0516618 0
1.09773 -0.0446545 0
0.870618 -0.0300651 0
0.561447 -0.0138577 0
0.199411 -0.00311008 0
-0.230585 0.00538362 0
0.230585 4.78925e-05 0
0.634413 0.00538361 0
0.944195 0.0201634 0
1.14258 0.0366687 0
1.24878 0.0472908 0
1.29622 0.0497417 0
1.31318 0.0455418 0
1.31731 0.0372162 0
1.31747 0.0267818 0
1.31738 0.0154383 0
1.31831 0.00379382 0
1.32054 -0.00783405 0
1.32358 -0.0191851 0
1.32539 -0.0298413 0
1.32012 -0.0389397 0
1.29447 -0.0448485 0
1.22505 -0.0452142 0
1.08365 -0.0382127 0
0.854969 -0.0251355 0
0.55107 -0.0114096 0
0.196408 -0.00255218 0
-0.225434 0.00465846 0
0.225434 4.14315e-05 0
0.620143 0.00465845 0
0.928259 0.0174633 0
1.13232 0.0323696 0
1.24642 0.042647 0
1.30027 0.0456983 0
1.32122 0.0424746 0
1.32738 0.0351519 0
1.32843 0.0256376 0
1.32862 0.0151404 0
1.32954 0.0043037 0
1.3315 -0.00652676 0
1.33387 -0.017067 0
1.33418 -0.0268691 0
1.32583 -0.0350471 0
1.29482 -0.0400287 0
1.21829 -0.0397485 0
1.07102 -0.0329409 0
0.841717 -0.0212681 0
0.542519 -0.00955802 0
0.193944 -0.00214225 0
-0.220976 0.00409898 0
0.220976 3.64485e-05 0
0.60778 0.00409897 0
0.913867 0.015328 0
1.1224 0.0288274 0
1.24347 0.0386883 0
1.30338 0.04217 0
1.32829 0.0397633 0
1.33657 0.0333194 0
1.33856 0.0246232 0
1.33908 0.0148775 0
1.33999 0.00475363 0
1.34168 -0.0053766 0
1.34334 -0.0152061 0
1.34208 -0.0242611 0
1.33064 -0.0316447 0
1.29455 -0.0358613 0
1.21172 -0.0351238 0
1.05975 -0.028622 0
0.830411 -0.0182147 0
0.535359 -0.00814093 0
0.191876 -0.00183701 0
-0.217054 0.00365667 0
0.217054 3.25102e-05 0
0.596938 0.00365666 0
0.900833 0.0136158 0
1.11288 0.0258888 0
1.24011 0.0353013 0
1.30571 0.0390837 0
1.33451 0.0373608 0
1.34497 0.0316872 0
1.34797 0.0237186 0
1.34886 0.0146402 0
1.34977 0.00514456 0
1.35117 -0.00437164 0
1.35208 -0.0135783 0
1.3492 -0.0219795 0
1.33471 -0.028677 0
1.29384 -0.0322636 0
1.20544 -0.031212 0
1.0497 -0.0250754 0
0.820684 -0.0157875 0
0.529272 -0.0070442 0
0.190103 -0.00160677 0
-0.213555 0.00329956 0
0.213555 2.93313e-05 0
0.587322 0.00329954 0
0.888983 0.0122234 0
1.10379 0.0234318 0
1.23646 0.0323895 0
1.30737 0.0363735 0
1.33999 0.0352229 0
1.35266 0.0302251 0
1.35674 0.0229048 0
1.35803 0.0144198 0
1.35896 0.00547865 0
1.36006 -0.00349846 0
1.36019 -0.0121585 0
1.35567 -0.0199859 0
1.33817 -0.02609 0
1.29283 -0.0291582 0
1.19952 -0.0279001 0
1.04073 -0.0221528 0
0.812243 -0.0138437 0
0.524023 -0.00618601 0
0.188551 -0.00143082 0
-0.210398 0.00300574 0
0.210398 2.67165e-05 0
0.578706 0.00300573 0
0.878162 0.0110753 0
1.09514 0.0213597 0
1.23261 0.0298717 0
1.30848 0.0339819 0
1.34481 0.03331 0
1.35973 0.0289061 0
1.36493 0.0221648 0
1.36666 0.0142092 0
1.36763 0.00575894 0
1.36842 -0.00274328 0
1.36775 -0.0109217 0
1.36157 -0.0182439 0
1.34114 -0.0238335 0
1.29161 -0.0264749 0
1.19397 -0.0250904 0
1.03271 -0.0197338 0
0.804849 -0.0122745 0
0.519431 -0.00550694 0
0.18717 -0.00129447 0
-0.207522 0.00275978 0
0.207522 2.45278e-05 0
0.570915 0.00275976 0
0.868232 0.0101154 0
1.08692 0.0195964 0
1.22864 0.0276805 0
1.30913 0.0318595 0
1.34907 0.0315877 0
1.36624 0.0277065 0
1.37261 0.0214838 0
1.37482 0.0140026 0
1.37584 0.00598911 0
1.37632 -0.00209262 0
1.37482 -0.00984447 0
1.36696 -0.01672 0
1.34369 -0.021862 0
1.29028 -0.024152 0
1.1888 -0.0226996 0
1.02551 -0.0177209 0
0.798315 -0.010997 0
0.515364 -0.00496332 0
0.185921 -0.00118715 0
-0.204881 0.00255052 0
0.204881 2.26662e-05 0
0.563813 0.0025505 0
0.859078 0.0093023 0
1.07912 0.0180816 0
1.22461 0.0257602 0
1.30939 0.0299645 0
1.35281 0.0300269 0
1.37225 0.0266063 0
1.37983 0.0208496 0
1.38256 0.0137956 0
1.38364 0.0061732 0
1.3838 -0.00153375 0
1.38146 -0.00890541 0
1.37193 -0.0153838 0
1.3459 -0.0201351 0
1.28887 -0.0221352 0
1.18399 -0.0206573 0
1.01902 -0.016036 0
0.79249 -0.00994741 0
0.511719 -0.00452275 0
0.184774 -0.00110125 0
-0.202441 0.00236984 0
0.202441 2.10591e-05 0
0.557295 0.00236982 0
0.850602 0.0086046 0
1.0717 0.016768 0
1.22055 0.0240655 0
1.30933 0.0282619 0
1.35612 0.0286028 0
1.37781 0.025589 0
1.38665 0.0202524 0
1.38991 0.0135852 0
1.39108 0.00631545 0
1.39092 -0.00105489 0
1.38771 -0.00808529 0
1.37651 -0.0142086 0
1.34783 -0.0186175 0
1.28745 -0.0203781 0
1.17953 -0.0189048 0
1.01314 -0.0146159 0
0.787252 -0.00907669 0
0.508415 -0.00416102 0
0.183711 -0.00103119 0
-0.200173 0.00221171 0
0.200174 1.96527e-05 0
0.551275 0.00221169 0
0.84272 0.00799875 0
1.06466 0.0156184 0
1.2165 0.0225591 0
1.30901 0.0267226 0
1.35903 0.0272952 0
1.38296 0.0246411 0
1.39308 0.0196846 0
1.39693 0.0133696 0
1.3982 0.00642014 0
1.39771 -0.000645378 0
1.39363 -0.00736713 0
1.38077 -0.0131712 0
1.34953 -0.0172786 0
1.28602 -0.0188408 0
1.17539 -0.0173931 0
1.00779 -0.0134103 0
0.782506 -0.00834695 0
0.505394 -0.00385994 0
0.182716 -0.000972909 0
-0.198057 0.00207166 0
0.198057 1.84073e-05 0
0.545688 0.00207164 0
0.835364 0.00746679 0
1.05796 0.0146032 0
1.21248 0.0212107 0
1.30845 0.0253227 0
1.36159 0.0260872 0
1.38774 0.0237518 0
1.39918 0.0191402 0
1.40364 0.0131477 0
1.40502 0.0064915 0
1.4042 -0.000295631 0
1.39923 -0.0067361 0
1.38474 -0.0122513 0
1.35104 -0.0160922 0
1.28463 -0.0174895 0
1.17154 -0.0160814 0
1.0029 -0.0123788 0
0.778174 -0.00772882 0
0.502606 -0.00360577 0
0.181777 -0.000923412 0
-0.196075 0.00194632 0
0.196075 1.72928e-05 0
0.540479 0.00194629 0
0.828473 0.00699499 0
1.05158 0.0136992 0
1.20851 0.0199958 0
1.30771 0.0240424 0
1.36384 0.0249652 0
1.3922 0.0229124 0
1.40497 0.018615 0
1.41007 0.0129194 0
1.41158 0.0065336 0
1.41041 2.86089e-06 0
1.40456 -0.00617931 0
1.38845 -0.0114318 0
1.35239 -0.0150358 0
1.28327 -0.0162956 0
1.16797 -0.0149363 0
0.998414 -0.0114888 0
0.774194 -0.00719949 0
0.500017 -0.00338811 0
0.180885 -0.000880506 0
-0.194213 0.00183313 0
0.194213 1.62865e-05 0
0.535604 0.00183311 0
0.822001 0.00657276 0
1.0455 0.0128881 0
1.2046 0.0188943 0
1.30682 0.0228653 0
1.36583 0.0239181 0
1.39635 0.0221162 0
1.41047 0.0181058 0
1.41624 0.0126848 0
1.41788 0.00655031 0
1.41638 0.000257604 0
1.40963 -0.00568567 0
1.39193 -0.0106977 0
1.3536 -0.0140903 0
1.28195 -0.0152351 0
1.16464 -0.01393 0
0.994273 -0.0107144 0
0.770514 -0.00674114 0
0.497596 -0.00319901 0
0.180035 -0.000842577 0
-0.192459 0.00173017 0
0.192459 1.53712e-05 0
0.531028 0.00173015 0
0.815903 0.00619191 0
1.0397 0.0121551 0
1.20077 0.01789 0
1.30581 0.021778 0
1.36757 0.0229367 0
1.40022 0.0213581 0
1.4157 0.0176105 0
1.42216 0.0124448 0
1.42396 0.00654526 0
1.42212 0.000475181 0
1.41447 -0.00524568 0
1.3952 -0.0100366 0
1.35471 -0.0132396 0
1.28069 -0.0142876 0
1.16154 -0.0130396 0
0.990437 -0.0100347 0
0.767094 -0.00633985 0
0.495321 -0.00303244 0
0.179222 -0.000808439 0
-0.190803 0.00163592 0
0.190804 1.45334e-05 0
0.526721 0.0016359 0
0.810146 0.00584602 0
1.03416 0.0114887 0
1.19701 0.0169696 0
1.30469 0.0207696 0
1.36909 0.0220136 0
1.40384 0.0206339 0
1.42069 0.0171278 0
1.42786 0.0122004 0
1.42982 0.0065218 0
1.42765 0.000661341 0
1.41909 -0.00485118 0
1.39829 -0.00943777 0
1.35572 -0.0124698 0
1.27949 -0.0134363 0
1.15863 -0.0122463 0
0.98687 -0.00943296 0
0.763901 -0.00598471 0
0.493174 -0.00288377 0
0.178442 -0.000777217 0
-0.189238 0.00154922 0
0.189239 1.37627e-05 0
0.522656 0.00154919 0
0.804698 0.00553001 0
1.02887 0.0108794 0
1.19335 0.0161222 0
1.30349 0.0198308 0
1.37042 0.0211429 0
1.40722 0.0199405 0
1.42545 0.0166567 0
1.43334 0.0119527 0
1.43548 0.00648301 0
1.43297 0.000821081 0
1.42352 -0.00449525 0
1.40122 -0.00889208 0
1.35665 -0.0117695 0
1.27834 -0.0126667 0
1.15592 -0.0115346 0
0.98354 -0.00889565 0
0.760907 -0.00566713 0
0.49114 -0.00274945 0
0.177691 -0.000748271 0
-0.187756 0.00146912 0
0.187756 1.30508e-05 0
0.518812 0.00146909 0
0.799533 0.00523988 0
1.02381 0.0103197 0
1.18977 0.0153389 0
1.30222 0.0189542 0
1.37158 0.0203196 0
1.41039 0.0192756 0
1.42999 0.016197 0
1.43862 0.0117029 0
1.44094 0.00643168 0
1.4381 0.000958731 0
1.42777 -0.00417198 0
1.404 -0.00839187 0
1.35752 -0.0111287 0
1.27725 -0.0119669 0
1.15337 -0.0108917 0
0.980423 -0.00841187 0
0.75809 -0.00538033 0
0.489208 -0.00262673 0
0.176969 -0.000721128 0
-0.18635 0.00139489 0
0.186351 1.23911e-05 0
0.515172 0.00139486 0
0.794629 0.00497237 0
1.01896 0.00980332 0
1.18628 0.0146123 0
1.3009 0.0181333 0
1.37259 0.0195396 0
1.41337 0.0186372 0
1.43433 0.0157484 0
1.44371 0.0114524 0
1.44623 0.00637031 0
1.44306 0.00107803 0
1.43184 -0.00387633 0
1.40664 -0.00793065 0
1.35833 -0.0105391 0
1.27621 -0.0113268 0
1.15098 -0.010307 0
0.977497 -0.00797277 0
0.755432 -0.00511893 0
0.487368 -0.0025135 0
0.176273 -0.00069544 0
-0.185016 0.0013259 0
0.185016 1.17779e-05 0
0.511718 0.00132587 0
0.789964 0.00472484 0
1.01432 0.0093253 0
1.18288 0.0139362 0
1.29955 0.0173629 0
1.37346 0.0187996 0
1.41615 0.0180239 0
1.43847 0.0153111 0
1.44862 0.0112022 0
1.45134 0.00630114 0
1.44784 0.00118219 0
1.43576 -0.00360405 0
1.40916 -0.00750288 0
1.35909 -0.00999367 0
1.27523 -0.010738 0
1.14872 -0.00977175 0
0.974741 -0.00757121 0
0.752916 -0.00487866 0
0.485613 -0.00240811 0
0.175602 -0.00067095 0
-0.183747 0.00126164 0
0.183748 1.12069e-05 0
0.508436 0.00126161 0
0.785523 0.00449511 0
1.00987 0.00888139 0
1.17957 0.0133054 0
1.29816 0.0166384 0
1.37421 0.0180965 0
1.41877 0.0174345 0
1.44244 0.0148851 0
1.45335 0.0109536 0
1.45628 0.00622613 0
1.45246 0.00127397 0
1.43952 -0.00335154 0
1.41157 -0.00710391 0
1.35981 -0.00948649 0
1.27429 -0.0101933 0
1.1466 -0.00927864 0
0.972142 -0.00720135 0
0.750531 -0.0046561 0
0.483936 -0.00230927 0
0.174954 -0.000647467 0
-0.18254 0.00120169 0
0.182541 1.06742e-05 0
0.505315 0.00120166 0
0.781288 0.00428135 0
1.0056 0.00846805 0
1.17635 0.0127156 0
1.29675 0.015956 0
1.37485 0.0174279 0
1.42124 0.0168679 0
1.44624 0.0144706 0
1.45791 0.0107077 0
1.46106 0.00614699 0
1.45693 0.0013557 0
1.44314 -0.00311574 0
1.41387 -0.00672978 0
1.36049 -0.00901246 0
1.27341 -0.00968682 0
1.14459 -0.00882167 0
0.969685 -0.00685842 0
0.748265 -0.0044485 0
0.482332 -0.00221597 0
0.174329 -0.000624847 0
-0.181391 0.00114566 0
0.181391 1.01763e-05 0
0.502341 0.00114563 0
0.777246 0.004082 0
1.0015 0.00808229 0
1.17322 0.0121629 0
1.29533 0.0153122 0
1.37539 0.0167916 0
1.42355 0.0163233 0
1.44987 0.0140679 0
1.46232 0.0104652 0
1.46569 0.0060652 0
1.46124 0.00142936 0
1.44663 -0.00289409 0
1.41607 -0.00637713 0
1.36114 -0.00856729 0
1.27258 -0.00921341 0
1.1427 -0.00839581 0
0.967358 -0.0065385 0
0.74611 -0.00425365 0
0.480795 -0.00212739 0
0.173726 -0.000602981 0
-0.180295 0.00109324 0
0.180295 9.71042e-06 0
0.499506 0.0010932 0
0.773384 0.00389575 0
0.997557 0.00772151 0
1.17018 0.0116442 0
1.2939 0.014704 0
1.37584 0.0161857 0
1.42573 0.0157999 0
1.45335 0.013677 0
1.46657 0.010227 0
1.47017 0.00598198 0
1.46542 0.00149661 0
1.45 -0.00268444 0
1.41819 -0.00604315 0
1.36177 -0.00814734 0
1.27179 -0.00876883 0
1.1409 -0.00799686 0
0.965152 -0.00623838 0
0.744057 -0.00406975 0
0.479324 -0.00204291 0
0.173144 -0.000581786 0
-0.179249 0.00104411 0
0.179249 9.27393e-06 0
0.496801 0.00104408 0
0.76969 0.00372142 0
0.99377 0.00738347 0
1.16723 0.0111564 0
1.29247 0.0141288 0
1.37622 0.0156082 0
1.42778 0.0152968 0
1.45668 0.0132979 0
1.47067 0.00999377 0
1.4745 0.00589836 0
1.46946 0.00155883 0
1.45324 -0.00248498 0
1.42022 -0.00572546 0
1.36237 -0.00774952 0
1.27104 -0.00834947 0
1.13921 -0.00762131 0
0.963058 -0.00595538 0
0.7421 -0.00389531 0
0.477913 -0.00196198 0
0.172583 -0.000561193 0
-0.17825 0.000998034 0
0.17825 8.86449e-06 0
0.494216 0.000998 0
0.766154 0.00355797 0
0.990127 0.00706617 0
1.16436 0.010697 0
1.29104 0.0135841 0
1.37652 0.0150575 0
1.42971 0.0148133 0
1.45987 0.0129307 0
1.47462 0.00976588 0
1.47869 0.00581516 0
1.47336 0.00161711 0
1.45637 -0.00229425 0
1.42217 -0.00542204 0
1.36295 -0.0073712 0
1.27034 -0.00795225 0
1.1376 -0.0072662 0
0.96107 -0.0056873 0
0.740234 -0.00372911 0
0.476561 -0.00188419 0
0.172041 -0.000541147 0
-0.177295 0.000954757 0
0.177296 8.47996e-06 0
0.491744 0.000954723 0
0.762767 0.0034045 0
0.986622 0.00676785 0
1.16157 0.0102637 0
1.28962 0.0130678 0
1.37675 0.014532 0
1.43153 0.0143486 0
1.46293 0.0125752 0
1.47843 0.0095437 0
1.48274 0.00573299 0
1.47714 0.00167233 0
1.45939 -0.00211105 0
1.42406 -0.00513125 0
1.36351 -0.00701018 0
1.26968 -0.0075746 0
1.13607 -0.00692904 0
0.959179 -0.00543227 0
0.738453 -0.00357016 0
0.475264 -0.00180917 0
0.171519 -0.000521602 0
-0.176382 0.000914062 0
0.176382 8.11839e-06 0
0.489379 0.000914029 0
0.75952 0.00326015 0
0.983247 0.00648688 0
1.15886 0.00985436 0
1.28821 0.0125776 0
1.37693 0.0140302 0
1.43324 0.0139019 0
1.46585 0.0122312 0
1.48211 0.00932738 0
1.48666 0.00565229 0
1.48079 0.00172515 0
1.4623 -0.00193442 0
1.42587 -0.00485169 0
1.36405 -0.00666458 0
1.26905 -0.00721432 0
1.13463 -0.00660776 0
0.957381 -0.00518874 0
0.736753 -0.00341759 0
0.474021 -0.00173663 0
0.171015 -0.000502517 0
-0.175507 0.000875744 0
0.175508 7.77794e-06 0
0.487114 0.000875712 0
0.756405 0.00312416 0
0.979996 0.0062218 0
1.15623 0.00946706 0
1.2868 0.0121118 0
1.37706 0.0135505 0
1.43485 0.0134721 0
1.46866 0.0118982 0
1.48566 0.00911697 0
1.49045 0.00557333 0
1.48432 0.00177604 0
1.46512 -0.00176363 0
1.42762 -0.00458224 0
1.36459 -0.00633285 0
1.26847 -0.00686957 0
1.13326 -0.00630057 0
0.955671 -0.00495542 0
0.73513 -0.00327071 0
0.47283 -0.00166631 0
0.17053 -0.000483854 0
-0.174669 0.000839612 0
0.17467 7.45693e-06 0
0.484943 0.000839582 0
0.753414 0.00299583 0
0.976862 0.00597125 0
1.15368 0.00909996 0
1.28542 0.0116684 0
1.37713 0.0130914 0
1.43637 0.0130584 0
1.47134 0.0115759 0
1.48908 0.00891231 0
1.49412 0.0054962 0
1.48774 0.00182529 0
1.46784 -0.00159812 0
1.42931 -0.004322 0
1.3651 -0.00601368 0
1.26792 -0.00653879 0
1.13196 -0.00600601 0
0.954045 -0.00473121 0
0.733581 -0.00312891 0
0.471689 -0.00159799 0
0.170063 -0.000465579 0
-0.173866 0.000805486 0
0.173867 7.15375e-06 0
0.482862 0.000805458 0
0.750542 0.00287448 0
0.973842 0.00573397 0
1.1512 0.00875134 0
1.28404 0.0112455 0
1.37716 0.0126515 0
1.4378 0.0126596 0
1.47392 0.0112636 0
1.49238 0.00871313 0
1.49766 0.00542083 0
1.49105 0.00187302 0
1.47047 -0.00143755 0
1.43094 -0.00407027 0
1.36561 -0.005706 0
1.2674 -0.00622067 0
1.13073 -0.00572281 0
0.952498 -0.00451518 0
0.732103 -0.00299168 0
0.470595 -0.00153148 0
0.169614 -0.000447658 0
-0.173096 0.000773195 0
0.173097 6.86688e-06 0
0.480864 0.000773169 0
0.747781 0.0027595 0
0.970929 0.00550875 0
1.14879 0.00841955 0
1.28268 0.0108416 0
1.37716 0.0122291 0
1.43915 0.0122748 0