# vtk DataFile Version 3.0
vtk output
ASCII
DATASET UNSTRUCTURED_GRID
POINTS 1913 double
0.045977 0 0
0.045977 0.0952381 0
0.045977 0.142857 0
0.045977 0.190476 0
0.045977 0.238095 0
0.045977 0.285714 0
0.045977 0.333333 0
0.045977 0.380952 0
0.045977 0.428571 0
0.045977 0.47619 0
0.045977 0.52381 0
0.045977 0.571429 0
0.045977 0.619048 0
0.045977 0.666667 0
0.045977 0.714286 0
0.045977 0.761905 0
0.045977 0.809524 0
0.045977 0.857143 0
0.045977 0.904762 0
0.045977 0.952381 0
0.045977 1 0
0.091954 0 0
0.091954 0.047619 0
0.091954 0.0952381 0
0.091954 0.142857 0
0.091954 0.190476 0
0.091954 0.238095 0
0.091954 0.285714 0
0.091954 0.333333 0
0.091954 0.380952 0
0.091954 0.428571 0
0.091954 0.47619 0
0.091954 0.52381 0
0.091954 0.571429 0
0.091954 0.619048 0
0.091954 0.666667 0
0.091954 0.714286 0
0.091954 0.761905 0
0.091954 0.809524 0
0.091954 0.857143 0
0.091954 0.904762 0
0.091954 0.952381 0
0.091954 1 0
0.137931 0 0
0.137931 0.047619 0
0.137931 0.0952381 0
0.137931 0.142857 0
0.137931 0.190476 0
0.137931 0.238095 0
0.137931 0.285714 0
0.137931 0.333333 0
0.137931 0.380952 0
0.137931 0.428571 0
0.137931 0.47619 0
0.137931 0.52381 0
0.137931 0.571429 0
0.137931 0.619048 0
0.137931 0.666667 0
0.137931 0.714286 0
0.137931 0.761905 0
0.137931 0.809524 0
0.137931 0.857143 0
0.137931 0.904762 0
0.137931 0.952381 0
0.137931 1 0
0.183908 0 0
0.183908 0.047619 0
0.183908 0.0952381 0
0.183908 0.142857 0
0.183908 0.190476 0
0.183908 0.238095 0
0.183908 0.285714 0
0.183908 0.333333 0
0.183908 0.380952 0
0.183908 0.428571 0
0.183908 0.47619 0
0.183908 0.52381 0
0.183908 0.571429 0
0.183908 0.619048 0
0.183908 0.666667 0
0.183908 0.714286 0
0.183908 0.761905 0
0.183908 0.809524 0
0.183908 0.857143 0
0.183908 0.904762 0
0.183908 0.952381 0
0.183908 1 0
0.229885 0 0
0.229885 0.047619 0
0.229885 0.0952381 0
0.229885 0.142857 0
0.229885 0.190476 0
0.229885 0.238095 0
0.229885 0.285714 0
0.229885 0.333333 0
0.229885 0.380952 0
0.229885 0.428571 0
0.229885 0.47619 0
0.229885 0.52381 0
0.229885 0.571429 0
0.229885 0.619048 0
0.229885 0.666667 0
0.229885 0.714286 0
0.229885 0.761905 0
0.229885 0.809524 0
0.229885 0.857143 0
0.229885 0.904762 0
0.229885 0.952381 0
0.229885 1 0
0.275862 0 0
0.275862 0.047619 0
0.275862 0.0952381 0
0.275862 0.142857 0
0.275862 0.190476 0
0.275862 0.238095 0
0.275862 0.285714 0
0.275862 0.333333 0
0.275862 0.380952 0
0.275862 0.428571 0
0.275862 0.47619 0
0.275862 0.52381 0
0.275862 0.571429 0
0.275862 0.619048 0
0.275862 0.666667 0
0.275862 0.714286 0
0.275862 0.761905 0
0.275862 0.809524 0
0.275862 0.857143 0
0.275862 0.904762 0
0.275862 0.952381 0
0.275862 1 0
0.321839 0 0
0.321839 0.047619 0
0.321839 0.0952381 0
0.321839 0.142857 0
0.321839 0.190476 0
0.321839 0.238095 0
0.321839 0.285714 0
0.321839 0.333333 0
0.321839 0.380952 0
0.321839 0.428571 0
0.321839 0.47619 0
0.321839 0.52381 0
0.321839 0.571429 0
0.321839 0.619048 0
0.321839 0.666667 0
0.321839 0.714286 0
0.321839 0.761905 0
0.321839 0.809524 0
0.321839 0.857143 0
0.321839 0.904762 0
0.321839 0.952381 0
0.321839 1 0
0.367816 0 0
0.367816 0.047619 0
0.367816 0.0952381 0
0.367816 0.142857 0
0.367816 0.190476 0
0.367816 0.238095 0
0.367816 0.285714 0
0.367816 0.333333 0
0.367816 0.380952 0
0.367816 0.428571 0
0.367816 0.47619 0
0.367816 0.52381 0
0.367816 0.571429 0
0.367816 0.619048 0
0.367816 0.666667 0
0.367816 0.714286 0
0.367816 0.761905 0
0.367816 0.809524 0
0.367816 0.857143 0
0.367816 0.904762 0
0.367816 0.952381 0
0.367816 1 0
0.413793 0 0
0.413793 0.047619 0
0.413793 0.0952381 0
0.413793 0.142857 0
0.413793 0.190476 0
0.413793 0.238095 0
0.413793 0.285714 0
0.413793 0.333333 0
0.413793 0.380952 0
0.413793 0.428571 0
0.413793 0.47619 0
0.413793 0.52381 0
0.413793 0.571429 0
0.413793 0.619048 0
0.413793 0.666667 0
0.413793 0.714286 0
0.413793 0.761905 0
0.413793 0.809524 0
0.413793 0.857143 0
0.413793 0.904762 0
0.413793 0.952381 0
0.413793 1 0
0.45977 0 0
0.45977 0.047619 0
0.45977 0.0952381 0
0.45977 0.142857 0
0.45977 0.190476 0
0.45977 0.238095 0
0.45977 0.285714 0
0.45977 0.333333 0
0.45977 0.380952 0
0.45977 0.428571 0
0.45977 0.47619 0
0.45977 0.52381 0
0.45977 0.571429 0
0.45977 0.619048 0
0.45977 0.666667 0
0.45977 0.714286 0
0.45977 0.761905 0
0.45977 0.809524 0
0.45977 0.857143 0
0.45977 0.904762 0
0.45977 0.952381 0
0.45977 1 0
0.505747 0 0
0.505747 0.047619 0
0.505747 0.0952381 0
0.505747 0.142857 0
0.505747 0.190476 0
0.505747 0.238095 0
0.505747 0.285714 0
0.505747 0.333333 0
0.505747 0.380952 0
0.505747 0.428571 0
0.505747 0.47619 0
0.505747 0.52381 0
0.505747 0.571429 0
0.505747 0.619048 0
0.505747 0.666667 0
0.505747 0.714286 0
0.505747 0.761905 0
0.505747 0.809524 0
0.505747 0.857143 0
0.505747 0.904762 0
0.505747 0.952381 0
0.505747 1 0
0.551724 0 0
0.551724 0.047619 0
0.551724 0.0952381 0
0.551724 0.142857 0
0.551724 0.190476 0
0.551724 0.238095 0
0.551724 0.285714 0
0.551724 0.333333 0
0.551724 0.380952 0
0.551724 0.428571 0
0.551724 0.47619 0
0.551724 0.52381 0
0.551724 0.571429 0
0.551724 0.619048 0
0.551724 0.666667 0
0.551724 0.714286 0
0.551724 0.761905 0
0.551724 0.809524 0
0.551724 0.857143 0
0.551724 0.904762 0
0.551724 0.952381 0
0.551724 1 0
0.597701 0 0
0.597701 0.047619 0
0.597701 0.0952381 0
0.597701 0.142857 0
0.597701 0.190476 0
0.597701 0.238095 0
0.597701 0.285714 0
0.597701 0.333333 0
0.597701 0.380952 0
0.597701 0.428571 0
0.597701 0.47619 0
0.597701 0.52381 0
0.597701 0.571429 0
0.597701 0.619048 0
0.597701 0.666667 0
0.597701 0.714286 0
0.597701 0.761905 0
0.597701 0.809524 0
0.597701 0.857143 0
0.597701 0.904762 0
0.597701 0.952381 0
0.597701 1 0
0.643678 0 0
0.643678 0.047619 0
0.643678 0.0952381 0
0.643678 0.142857 0
0.643678 0.190476 0
0.643678 0.238095 0
0.643678 0.285714 0
0.643678 0.333333 0
0.643678 0.380952 0
0.643678 0.428571 0
0.643678 0.47619 0
0.643678 0.52381 0
0.643678 0.571429 0
0.643678 0.619048 0
0.643678 0.666667 0
0.643678 0.714286 0
0.643678 0.761905 0
0.643678 0.809524 0
0.643678 0.857143 0
0.643678 0.904762 0
0.643678 0.952381 0
0.643678 1 0
0.689655 0 0
0.689655 0.047619 0
0.689655 0.0952381 0
0.689655 0.142857 0
0.689655 0.190476 0
0.689655 0.238095 0
0.689655 0.285714 0
0.689655 0.333333 0
0.689655 0.380952 0
0.689655 0.428571 0
0.689655 0.47619 0
0.689655 0.52381 0
0.689655 0.571429 0
0.689655 0.619048 0
0.689655 0.666667 0
0.689655 0.714286 0
0.689655 0.761905 0
0.689655 0.809524 0
0.689655 0.857143 0
0.689655 0.904762 0
0.689655 0.952381 0
0.689655 1 0
0.735632 0 0
0.735632 0.047619 0
0.735632 0.0952381 0
0.735632 0.142857 0
0.735632 0.190476 0
0.735632 0.238095 0
0.735632 0.285714 0
0.735632 0.333333 0
0.735632 0.380952 0
0.735632 0.428571 0
0.735632 0.47619 0
0.735632 0.52381 0
0.735632 0.571429 0
0.735632 0.619048 0
0.735632 0.666667 0
0.735632 0.714286 0
0.735632 0.761905 0
0.735632 0.809524 0
0.735632 0.857143 0
0.735632 0.904762 0
0.735632 0.952381 0
0.735632 1 0
0.781609 0 0
0.781609 0.047619 0
0.781609 0.0952381 0
0.781609 0.142857 0
0.781609 0.190476 0
0.781609 0.238095 0
0.781609 0.285714 0
0.781609 0.333333 0
0.781609 0.380952 0
0.781609 0.428571 0
0.781609 0.47619 0
0.781609 0.52381 0
0.781609 0.571429 0
0.781609 0.619048 0
0.781609 0.666667 0
0.781609 0.714286 0
0.781609 0.761905 0
0.781609 0.809524 0
0.781609 0.857143 0
0.781609 0.904762 0
0.781609 0.952381 0
0.781609 1 0
0.827586 0 0
0.827586 0.047619 0
0.827586 0.0952381 0
0.827586 0.142857 0
0.827586 0.190476 0
0.827586 0.238095 0
0.827586 0.285714 0
0.827586 0.333333 0
0.827586 0.380952 0
0.827586 0.428571 0
0.827586 0.47619 0
0.827586 0.52381 0
0.827586 0.571429 0
0.827586 0.619048 0
0.827586 0.666667 0
0.827586 0.714286 0
0.827586 0.761905 0
0.827586 0.809524 0
0.827586 0.857143 0
0.827586 0.904762 0
0.827586 0.952381 0
0.827586 1 0
0.873563 0 0
0.873563 0.047619 0
0.873563 0.0952381 0
0.873563 0.142857 0
0.873563 0.190476 0
0.873563 0.238095 0
0.873563 0.285714 0
0.873563 0.333333 0
0.873563 0.380952 0
0.873563 0.428571 0
0.873563 0.47619 0
0.873563 0.52381 0
0.873563 0.571429 0
0.873563 0.619048 0
0.873563 0.666667 0
0.873563 0.714286 0
0.873563 0.761905 0
0.873563 0.809524 0
0.873563 0.857143 0
0.873563 0.904762 0
0.873563 0.952381 0
0.873563 1 0
0.91954 0 0
0.91954 0.047619 0
0.91954 0.0952381 0
0.91954 0.142857 0
0.91954 0.190476 0
0.91954 0.238095 0
0.91954 0.285714 0
0.91954 0.333333 0
0.91954 0.380952 0
0.91954 0.428571 0
0.91954 0.47619 0
0.91954 0.52381 0
0.91954 0.571429 0
0.91954 0.619048 0
0.91954 0.666667 0
0.91954 0.714286 0
0.91954 0.761905 0
0.91954 0.809524 0
0.91954 0.857143 0
0.91954 0.904762 0
0.91954 0.952381 0
0.91954 1 0
0.965517 0 0
0.965517 0.047619 0
0.965517 0.0952381 0
0.965517 0.142857 0
0.965517 0.190476 0
0.965517 0.238095 0
0.965517 0.285714 0
0.965517 0.333333 0
0.965517 0.380952 0
0.965517 0.428571 0
0.965517 0.47619 0
0.965517 0.52381 0
0.965517 0.571429 0
0.965517 0.619048 0
0.965517 0.666667 0
0.965517 0.714286 0
0.965517 0.761905 0
0.965517 0.809524 0
0.965517 0.857143 0
0.965517 0.904762 0
0.965517 0.952381 0
0.965517 1 0
1.01149 0 0
1.01149 0.047619 0
1.01149 0.0952381 0
1.01149 0.142857 0
1.01149 0.190476 0
1.01149 0.238095 0
1.01149 0.285714 0
1.01149 0.333333 0
1.01149 0.380952 0
1.01149 0.428571 0
1.01149 0.47619 0
1.01149 0.52381 0
1.01149 0.571429 0
1.01149 0.619048 0
1.01149 0.666667 0
1.01149 0.714286 0
1.01149 0.761905 0
1.01149 0.809524 0
1.01149 0.857143 0
1.01149 0.904762 0
1.01149 0.952381 0
1.01149 1 0
1.05747 0 0
1.05747 0.047619 0
1.05747 0.0952381 0
1.05747 0.142857 0
1.05747 0.190476 0
1.05747 0.238095 0
1.05747 0.285714 0
1.05747 0.333333 0
1.05747 0.380952 0
1.05747 0.428571 0
1.05747 0.47619 0
1.05747 0.52381 0
1.05747 0.571429 0
1.05747 0.619048 0
1.05747 0.666667 0
1.05747 0.714286 0
1.05747 0.761905 0
1.05747 0.809524 0
1.05747 0.857143 0
1.05747 0.904762 0
1.05747 0.952381 0
1.05747 1 0
1.10345 0 0
1.10345 0.047619 0
1.10345 0.0952381 0
1.10345 0.142857 0
1.10345 0.190476 0
1.10345 0.238095 0
1.10345 0.285714 0
1.10345 0.333333 0
1.10345 0.380952 0
1.10345 0.428571 0
1.10345 0.47619 0
1.10345 0.52381 0
1.10345 0.571429 0
[...]
POINT_DATA 1913
VECTORS velocity[m/s] double
-0 0.2083 0
0 0.208313 0
0 0.207604 0
0 0.179046 0
0 0.14908 0
0 0.121174 0
0 0.0954447 0
0 0.0714927 0
0 0.0488326 0
0 0.0269774 0
0 0.00545099 0
0 -0.0162286 0
0 -0.0385777 0
0 -0.0621868 0
0 -0.0877739 0
0 -0.116258 0
0 -0.148863 0
0 -0.18725 0
0 -0.233298 0
0 -0.28452 0
0 -0.298525 0
-0.869608 0.183896 0
0.869606 0.00162196 0
1.07142 0.183908 0
1.09834 0.206634 0
1.09972 0.181966 0
1.09777 0.150894 0
1.09569 0.121982 0
1.094 0.0957742 0
1.09277 0.0716244 0
1.09201 0.0488932 0
1.09169 0.0270295 0
1.09182 0.00552984 0
1.09245 -0.0161002 0
1.09363 -0.0383848 0
1.09549 -0.061923 0
1.09822 -0.0874523 0
1.10213 -0.115949 0
1.10763 -0.148775 0
1.11494 -0.187627 0
1.11984 -0.232338 0
1.08383 -0.268112 0
0.78202 -0.227206 0
-0.69365 0.143162 0
0.693636 0.00128256 0
1.0495 0.143174 0
1.12217 0.187023 0
1.12974 0.175183 0
1.1257 0.14797 0
1.12102 0.119962 0
1.11734 0.0941552 0
1.11474 0.0704114 0
1.11313 0.0481255 0
1.11246 0.0267347 0
1.11273 0.0057406 0
1.11398 -0.0153314 0
1.11637 -0.0369737 0
1.12015 -0.0597406 0
1.12576 -0.0843065 0
1.13384 -0.111536 0
1.14516 -0.142441 0
1.15813 -0.17724 0
1.1544 -0.210512 0
1.04435 -0.217055 0
0.56267 -0.141084 0
-0.556692 0.103902 0
0.556666 0.000930228 0
1.00718 0.103914 0
1.13362 0.158006 0
1.15604 0.159756 0
1.15276 0.139683 0
1.14595 0.114721 0
1.14028 0.0904549 0
1.13628 0.0678175 0
1.13381 0.0465131 0
1.13275 0.0260698 0
1.13309 0.00604123 0
1.1349 -0.0139927 0
1.13837 -0.0344554 0
1.14389 -0.0558062 0
1.15207 -0.0785715 0
1.1637 -0.103323 0
1.17878 -0.130316 0
1.19027 -0.157702 0
1.16074 -0.175968 0
0.971022 -0.159314 0
0.426473 -0.0796415 0
-0.4573 0.0721172 0
0.457263 0.000645091 0
0.954977 0.0721298 0
1.13195 0.127434 0
1.17544 0.139399 0
1.17688 0.127088 0
1.1694 0.106496 0
1.16216 0.0847509 0
1.15686 0.0638852 0
1.15356 0.0440695 0
1.15211 0.0250127 0
1.15245 0.00636521 0
1.15467 -0.0122084 0
1.15901 -0.0310332 0
1.16589 -0.0504374 0
1.17598 -0.0707427 0
1.18979 -0.0921325 0
1.20525 -0.11402 0
1.20793 -0.132949 0
1.14469 -0.138165 0
0.894119 -0.109969 0
0.3496 -0.0436273 0
-0.388322 0.0485325 0
0.388273 0.000433828 0
0.901599 0.0485498 0
1.12042 0.0992559 0
1.18735 0.117183 0
1.19678 0.111624 0
1.19042 0.0958337 0
1.18232 0.0772718 0
1.17602 0.0587308 0
1.17198 0.040847 0
1.17013 0.0235557 0
1.17041 0.00663713 0
1.17287 -0.0101365 0
1.17776 -0.0269735 0
1.18552 -0.0440523 0
1.19666 -0.0614712 0
1.21094 -0.0790285 0
1.22354 -0.0954694 0
1.21299 -0.1066 0
1.11748 -0.102787 0
0.830086 -0.0723255 0
0.307499 -0.0235905 0
-0.341912 0.0317977 0
0.341845 0.000284119 0
0.852662 0.0318248 0
1.10313 0.0747413 0
1.19273 0.094898 0
1.21205 0.0944767 0
1.20836 0.0833391 0
1.20025 0.0683252 0
1.1933 0.0525285 0
1.1887 0.0369364 0
1.18649 0.0217125 0
1.18662 0.00678671 0
1.18914 -0.00794617 0
1.19427 -0.0225684 0
1.20236 -0.0371062 0
1.21363 -0.0514478 0
1.22683 -0.0650807 0
1.23431 -0.0763732 0
1.20933 -0.0812134 0
1.0881 -0.0723542 0
0.783055 -0.0450232 0
0.284745 -0.0122207 0
-0.311515 0.0200797 0
0.311423 0.000179408 0
0.811245 0.0201178 0
1.08369 0.0539331 0
1.19316 0.0735486 0
1.22282 0.0766299 0
1.22287 0.069684 0
1.21552 0.0583287 0
1.20838 0.0455366 0
1.20342 0.0324842 0
1.20092 0.0195318 0
1.20086 0.00676342 0
1.20328 -0.00579684 0
1.20833 -0.0181055 0
1.21622 -0.0300476 0
1.22681 -0.0413383 0
1.23776 -0.051265 0
1.23901 -0.0581172 0
1.2008 -0.0584381 0
1.06173 -0.0476745 0
0.751407 -0.0258403 0
0.27297 -0.00553726 0
-0.292333 0.0118806 0
0.292203 0.000106205 0
0.778617 0.0119253 0
1.06477 0.0366609 0
1.1902 0.0539426 0
1.22955 0.0590973 0
1.23386 0.0556935 0
1.22789 0.0478537 0
1.221 0.0381227 0
1.21594 0.0277058 0
1.21327 0.0171056 0
1.21301 0.0065472 0
1.21519 -0.003822 0
1.21988 -0.0138436 0
1.22715 -0.0232854 0
1.23642 -0.031741 0
1.2444 -0.0384172 0
1.23934 -0.0417639 0
1.19043 -0.0392637 0
1.04067 -0.0287445 0
0.731828 -0.0128603 0
0.267648 -0.00158874 0
-0.280997 0.00622761 0
0.280825 5.57541e-05 0
0.754756 0.00627094 0
1.04811 0.0228924 0
1.18525 0.0369032 0
1.23286 0.0429536 0
1.24145 0.0423051 0
1.2373 0.0375826 0
1.23108 0.0307364 0
1.2262 0.0228708 0
1.22348 0.0145642 0
1.22304 0.00615105 0
1.22488 -0.0021183 0
1.22902 -0.00999311 0
1.23533 -0.0171574 0
1.24289 -0.0231421 0
1.24765 -0.0271782 0
1.23695 -0.0280254 0
1.1803 -0.0241381 0
1.02536 -0.015108 0
0.72097 -0.00456486 0
0.266138 0.000626961 0
-0.275071 0.00251187 0
0.274857 2.2585e-05 0
0.73873 0.0025469 0
1.0346 0.0126079 0
1.17943 0.0231073 0
1.2335 0.0291397 0
1.24603 0.0303872 0
1.24393 0.0281771 0
1.23869 0.0238285 0
1.23424 0.0182589 0
1.23162 0.0120544 0
1.23105 0.00561458 0
1.23251 -0.000740455 0
1.23595 -0.00669911 0
1.24113 -0.0119008 0
1.24681 -0.0158698 0
1.24849 -0.0179365 0
1.23322 -0.0172257 0
1.1716 -0.0130198 0
1.01521 -0.00599851 0
0.715981 0.000292947 0
0.266768 0.00171153 0
-0.272702 0.000280613 0
0.272454 2.64874e-06 0
0.729039 0.000303944 0
1.02449 0.0055734 0
1.17363 0.0128363 0
1.23232 0.0182224 0
1.24818 0.0205381 0
1.24815 0.0201334 0
1.24409 0.017759 0
1.24025 0.0141062 0
1.23786 0.00971176 0
1.2372 0.00499176 0
1.23828 0.000297509 0
1.241 -0.00403394 0
1.24498 -0.00763565 0
1.24882 -0.0100696 0
1.24783 -0.0108058 0
1.22918 -0.00931167 0
1.16485 -0.00546887 0
1.00915 -0.000467543 0
0.714635 0.00276066 0
0.268444 0.00208199 0
-0.272468 -0.000870643 0
0.272198 -7.6587e-06 0
0.723974 -0.000858642 0
1.0175 0.00127214 0
1.16845 0.00588395 0
1.23011 0.0102869 0
1.2486 0.0129826 0
1.25047 0.0136974 0
1.24764 0.0127365 0
1.24451 0.0105666 0
1.24244 0.00763688 0
1.24176 0.00433784 0
1.24248 0.00101545 0
1.24449 -0.00200037 0
1.24736 -0.00436769 0
1.24955 -0.00571428 0
1.24641 -0.00565704 0
1.22549 -0.00393748 0
1.16004 -0.000798588 0
1.00606 0.00246641 0
0.715313 0.00369112 0
0.270477 0.00203983 0
-0.273335 -0.00130823 0
0.273053 -1.15975e-05 0
0.721939 -0.00130486 0
1.01307 -0.000987654 0
1.16422 0.00166711 0
1.22753 0.00500469 0
1.24793 0.00759948 0
1.25141 0.00886635 0
1.24975 0.0088088 0
1.24736 0.0076999 0
1.24564 0.00588467 0
1.24498 0.00369947 0
1.24541 0.00145673 0
1.2468 -0.000545576 0
1.24868 -0.00201126 0
1.24952 -0.00264551 0
1.24477 -0.00219581 0
1.22249 -0.000593267 0
1.15691 0.00175379 0
1.0049 0.00368374 0
0.71693 0.00373156 0
0.272469 0.00179404 0
-0.274619 -0.00133285 0
0.274334 -1.18451e-05 0
0.721655 -0.00133477 0
1.01052 -0.00190262 0
1.16102 -0.000557296 0
1.22504 0.00181137 0
1.24672 0.00403779 0
1.25149 0.00545437 0
1.25084 0.00589426 0
1.24913 0.00548371 0
1.24777 0.00446598 0
1.24717 0.00310959 0
1.24737 0.00167681 0
1.24824 0.000418926 0
1.24931 -0.000423305 0
1.24911 -0.00063068 0
1.24324 -5.32873e-05 0
1.22024 0.00126625 0
1.15507 0.00288852 0
1.00488 0.00388233 0
0.718822 0.00333071 0
0.274222 0.00147733 0
-0.275926 -0.00116042 0
0.275643 -1.03264e-05 0
0.722224 -0.00116481 0
1.00925 -0.00204665 0
1.15875 -0.00149501 0
1.22291 9.2118e-05 0
1.24537 0.00185547 0
1.25108 0.00318139 0
1.25126 0.00383354 0
1.25013 0.00384024 0
1.2491 0.003358 0
1.24857 0.00258687 0
1.2486 0.00173325 0
1.24907 0.000996593 0
1.24953 0.000561822 0
1.24857 0.000582638 0
1.24199 0.00113655 0
1.21869 0.00212912 0
1.15413 0.0031654 0
1.00543 0.00355627 0
0.720632 0.00276897 0
0.275669 0.00116435 0
-0.277067 -0.000925046 0
0.276788 -8.23882e-06 0
0.723095 -0.000930014 0
1.00873 -0.00182183 0
1.15724 -0.00170132 0
1.22123 -0.000689145 0
1.24411 0.000628231 0
1.25047 0.00175132 0
1.25127 0.00243944 0
1.25062 0.00266482 0
1.24987 0.0025178 0
1.24941 0.00213796 0
1.24933 0.00167844 0
1.24951 0.0012891 0
1.24953 0.00110477 0
1.24805 0.00122731 0
1.24105 0.00168813 0
1.21771 0.00237994 0
1.15377 0.00298348 0
1.00621 0.00301896 0
0.722201 0.00220118 0
0.276813 0.000890191 0
-0.277981 -0.000697156 0
0.277707 -6.21275e-06 0
0.723976 -0.000701688 0
1.00864 -0.00147123 0
1.15628 -0.00155329 0
1.21998 -0.000933855 0
1.24305 9.77976e-06 0
1.24983 0.000902488 0
1.25107 0.00153338 0
1.25078 0.00184928 0
1.25025 0.00189476 0
1.24988 0.00176104 0
1.24972 0.00155563 0
1.2497 0.00138546 0
1.24943 0.00134412 0
1.24763 0.00149534 0
1.2404 0.00184428 0
1.21715 0.00229217 0
1.15376 0.00259905 0
1.00702 0.00244697 0
0.723485 0.0016992 0
0.277691 0.000666022 0
-0.278677 -0.000505702 0
0.278406 -4.50848e-06 0
0.724738 -0.000509406 0
1.00873 -0.00112028 0
1.1557 -0.00127522 0
1.21908 -0.000908112 0
1.24221 -0.000251008 0
1.24924 0.000429798 0
1.25078 0.000965407 0
1.25075 0.00129668 0
1.2504 0.00143948 0
1.25009 0.00144931 0
1.24991 0.00139763 0
1.24976 0.00135701 0
1.2493 0.00138928 0
1.24731 0.00153186 0
1.23999 0.00177701 0
1.21687 0.00204345 0
1.15392 0.00216035 0
1.00776 0.00192572 0
0.724501 0.00128626 0
0.278352 0.000490433 0
-0.279188 -0.000356744 0
0.27892 -3.18147e-06 0
0.725346 -0.000359582 0
1.0089 -0.000820799 0
1.15536 -0.000983142 0
1.21847 -0.000770077 0
1.24157 -0.000319645 0
1.24874 0.000186395 0
1.25048 0.000620571 0
1.25063 0.000928203 0
1.25041 0.00110898 0
1.25016 0.0011938 0
1.24996 0.00122749 0
1.24975 0.00125679 0
1.24918 0.00132051 0
1.24709 0.00143884 0
1.23975 0.00159924 0
1.21678 0.00173949 0
1.15416 0.0017431 0
1.00839 0.0014867 0
0.725287 0.000960769 0
0.278844 0.000356643 0
-0.279555 -0.000245974 0
0.279291 -2.1942e-06 0
0.725808 -0.000248066 0
1.00908 -0.000585179 0
1.15518 -0.00072688 0
1.21805 -0.000603905 0
1.24109 -0.000296464 0
1.24834 7.45653e-05 0
1.2502 0.000416753 0
1.25047 0.000684185 0
1.25034 0.000868666 0
1.25015 0.000985227 0
1.24995 0.00106011 0
1.2497 0.00112172 0
1.24908 0.00119294 0
1.24695 0.00128336 0
1.23963 0.00137995 0
1.21679 0.00143748 0
1.15443 0.0013793 0
1.00892 0.00113323 0
0.725888 0.000710804 0
0.279205 0.000256502 0
-0.279816 -0.000165805 0
0.279553 -1.47944e-06 0
0.726151 -0.000167315 0
1.00923 -0.000408151 0
1.15507 -0.000520823 0
1.21777 -0.000448679 0
1.24075 -0.000237595 0
1.24802 3.32484e-05 0
1.24996 0.000298551 0
1.25031 0.000521924 0
1.25025 0.000692272 0
1.25009 0.000815042 0
1.24991 0.000904201 0
1.24965 0.000975754 0
1.24901 0.00104214 0
1.24688 0.00110675 0
1.23959 0.00115805 0
1.21686 0.00116445 0
1.15468 0.00107716 0
1.00934 0.000856195 0
0.726343 0.000521864 0
0.27947 0.000182403 0
-0.279999 -0.000108711 0
0.279738 -9.70329e-07 0
0.7264 -0.000109791 0
1.00936 -0.000278703 0
1.15502 -0.000363085 0
1.21758 -0.000318796 0
1.24051 -0.000171782 0
1.24778 2.64131e-05 0
1.24976 0.000230358 0
1.25016 0.000412225 0
1.25014 0.000560715 0
1.25002 0.000675913 0
1.24986 0.000764104 0
1.2496 0.00083333 0
1.24897 0.00088948 0
1.24684 0.000932604 0
1.2396 0.000953318 0
1.21696 0.000930267 0
1.15491 0.000833437 0
1.00968 0.000642571 0
0.726687 0.00038041 0
0.279662 0.000127984 0
-0.280127 -6.84497e-05 0
0.279867 -6.11267e-07 0
0.726579 -6.92229e-05 0
1.00945 -0.00018558 0
1.15499 -0.000245902 0
1.21746 -0.000216562 0
1.24033 -0.000112072 0
1.2476 3.39978e-05 0
1.2496 0.000190249 0
1.25004 0.000335853 0
1.25005 0.000460573 0
1.24995 0.000561806 0
1.24981 0.00064131 0
1.24957 0.000702277 0
1.24894 0.000746714 0
1.24684 0.000773064 0
1.23964 0.000774084 0
1.21707 0.000735758 0
1.15511 0.000640389 0
1.00995 0.000479472 0
0.726947 0.000275128 0
0.279801 8.82326e-05 0
-0.280216 -4.02538e-05 0
0.279956 -3.59789e-07 0
0.726707 -4.08117e-05 0
1.00953 -0.000119292 0
1.15498 -0.000160556 0
1.21737 -0.000139183 0
1.24021 -6.31451e-05 0
1.24747 4.55691e-05 0
1.24948 0.000165264 0
1.24993 0.000280521 0
1.24997 0.000382627 0
1.24989 0.000467877 0
1.24976 0.000535565 0
1.24954 0.000586115 0
1.24893 0.000619396 0
1.24685 0.000633243 0
1.23969 0.000622265 0
1.21718 0.000577545 0
1.15528 0.000489273 0
1.01016 0.000355725 0
0.727143 0.000197071 0
0.279902 5.93239e-05 0
-0.280276 -2.06364e-05 0
0.280017 -1.8481e-07 0
0.726797 -2.10445e-05 0
1.00958 -7.24932e-05 0
1.15498 -9.93141e-05 0
1.21731 -8.22736e-05 0
1.24012 -2.55873e-05 0
1.24737 5.62113e-05 0
1.24938 0.000148055 0
1.24985 0.000238582 0
1.2499 0.000320629 0
1.24984 0.000390284 0
1.24973 0.000445658 0
1.24952 0.000485734 0
1.24893 0.000509328 0
1.24688 0.00051421 0
1.23975 0.000496481 0
1.21728 0.000450677 0
1.15543 0.000371928 0
1.01033 0.000262235 0
0.727291 0.00013938 0
0.279974 3.83961e-05 0
-0.280318 -7.09854e-06 0
0.280059 -6.40458e-08 0
0.726861 -7.4023e-06 0
1.00962 -3.97246e-05 0
1.15497 -5.59512e-05 0
1.21727 -4.14286e-05 0
1.24005 1.79519e-06 0
1.24729 6.401e-05 0
1.24931 0.000134662 0
1.24978 0.000205368 0
1.24985 0.000270369 0
1.2498 0.000325994 0
1.24971 0.000369928 0
1.24951 0.000400523 0
1.24894 0.000416186 0
1.24691 0.000414885 0
1.23981 0.000393872 0
1.21737 0.000349974 0
1.15555 0.000281335 0
1.01046 0.000191845 0
0.727403 9.68757e-05 0
0.280026 2.33296e-05 0
-0.280346 2.13537e-06 0
0.280087 1.83361e-08 0
0.726907 1.90471e-06 0
1.00965 -1.70124e-05 0
1.15497 -2.56827e-05 0
1.21724 -1.28193e-05 0
1.24001 2.07896e-05 0
1.24724 6.85816e-05 0
1.24925 0.000123081 0
1.24973 0.000178075 0
1.24981 0.000228995 0
1.24977 0.000272607 0
1.24969 0.000306586 0
1.24951 0.000329118 0
1.24896 0.000338561 0
1.24694 0.000333187 0
1.23986 0.000311111 0
1.21745 0.000270648 0
1.15565 0.000211721 0
1.01057 0.000139017 0
0.727488 6.56807e-05 0
0.280062 1.25621e-05 0
-0.280364 8.32433e-06 0
0.280105 7.35632e-08 0
0.726939 8.14543e-06 0
1.00967 -1.48648e-06 0
1.15497 -4.91954e-06 0
1.21722 6.66564e-06 0
1.23997 3.32171e-05 0
1.2472 7.02491e-05 0
1.24921 0.000112399 0
1.2497 0.000155031 0
1.24978 0.000194547 0
1.24975 0.000228208 0
1.24968 0.000253886 0
1.24952 0.000269851 0
1.24898 0.000274589 0
1.24698 0.000266701 0
1.23992 0.00024493 0
1.21752 0.000208539 0
1.15573 0.000158447 0
1.01065 9.95111e-05 0
0.727552 4.29013e-05 0
0.280088 4.94501e-06 0
-0.280376 1.23618e-05 0
0.280117 1.09603e-07 0
0.726961 1.22202e-05 0
1.00969 8.9197e-06 0
1.15498 8.99659e-06 0
1.21721 1.94627e-05 0
1.23995 4.06967e-05 0
1.24717 6.96006e-05 0
1.24919 0.000102273 0
1.24967 0.000135229 0
1.24976 0.000165646 0
1.24974 0.00019126 0
1.24968 0.000210227 0
1.24952 0.000221013 0
1.249 0.000222314 0
1.24701 0.000213032 0
1.23996 0.000192365 0
1.21758 0.000160161 0
1.1558 0.000117845 0
1.01072 7.00964e-05 0
0.727602 2.63821e-05 0
0.280106 -3.64927e-07 0
-0.280383 1.48829e-05 0
0.280125 1.32119e-07 0
0.726977 1.47686e-05 0
1.0097 1.56933e-05 0
1.15498 1.80204e-05 0
1.2172 2.74364e-05 0
1.23994 4.4571e-05 0
1.24715 6.72654e-05 0
1.24917 9.26413e-05 0
1.24966 0.000118054 0
1.24975 0.000141292 0
1.24974 0.000160517 0
1.24968 0.000174187 0
1.24954 0.000181001 0
1.24902 0.000179882 0
1.24705 0.000169994 0
1.24001 0.000150854 0
1.21764 0.000122659 0
1.15586 8.7038e-05 0
1.01078 4.83188e-05 0
0.727641 1.45189e-05 0
0.280118 -3.98664e-06 0
-0.280387 1.63393e-05 0
0.280129 1.4514e-07 0
0.726988 1.62456e-05 0
1.00971 1.99039e-05 0
1.15498 2.35816e-05 0
1.2172 3.19909e-05 0
1.23993 4.59059e-05 0
1.24714 6.38116e-05 0
1.24916 8.35532e-05 0
1.24965 0.000103104 0
1.24974 0.000120733 0
1.24973 0.000134964 0
1.24969 0.000144535 0
1.24955 0.000148379 0
1.24904 0.000145632 0
1.24708 0.000135674 0
1.24005 0.000118245 0
1.21768 9.37306e-05 0
1.15591 6.37892e-05 0
1.01082 3.2319e-05 0
0.727671 6.11841e-06 0
0.280126 -6.37386e-06 0
-0.280389 1.70525e-05 0
0.280131 1.51532e-07 0
0.726997 1.69748e-05 0
1.00972 2.23199e-05 0
1.15499 2.67207e-05 0
1.2172 3.41702e-05 0
1.23992 4.55219e-05 0
1.24713 5.97078e-05 0
1.24915 7.5091e-05 0
1.24964 9.01032e-05 0
1.24974 0.000103385 0
1.24974 0.000113762 0
1.2497 0.000120219 0
1.24956 0.000121899 0
1.24906 0.000118126 0
1.24711 0.000108452 0
1.24008 9.27641e-05 0
1.21772 7.15409e-05 0
1.15595 4.63659e-05 0
1.01086 2.0691e-05 0
0.727695 2.94265e-07 0
0.280132 -7.85877e-06 0
-0.28039 1.72508e-05 0
0.280132 1.5333e-07 0
0.727003 1.71858e-05 0
1.00973 2.34919e-05 0
1.15499 2.81912e-05 0
1.2172 3.47409e-05 0
1.23992 4.40346e-05 0
1.24713 5.53178e-05 0
1.24915 6.73282e-05 0
1.24964 7.88392e-05 0
1.24974 8.87807e-05 0
1.24974 9.62222e-05 0
1.24971 0.000100356 0
1.24958 0.000100507 0
1.24908 9.61532e-05 0
1.24713 8.69803e-05 0
1.24011 7.2974e-05 0
1.21776 5.46398e-05 0
1.15599 3.34332e-05 0
1.01089 1.23742e-05 0
0.727714 -3.61117e-06 0
0.280136 -8.68405e-06 0
-0.28039 1.70958e-05 0
0.280131 1.51977e-07 0
0.727008 1.70414e-05 0
1.00973 2.38129e-05 0
1.155 2.85348e-05 0
1.2172 3.42599e-05 0
1.23992 4.18959e-05 0
1.24713 5.09103e-05 0
1.24914 6.03145e-05 0
1.24964 6.91385e-05 0
1.24974 7.65358e-05 0
1.24975 8.17709e-05 0
1.24972 8.4207e-05 0
1.24959 8.33163e-05 0
1.2491 7.87053e-05 0
1.24716 7.01581e-05 0
1.24014 5.77216e-05 0
1.21779 4.18902e-05 0
1.15602 2.39668e-05 0
1.01092 6.57036e-06 0
0.72773 -6.08452e-06 0
0.280138 -9.02642e-06 0
-0.280389 1.67019e-05 0
0.280131 1.48493e-07 0
0.727012 1.66565e-05 0
1.00974 2.35625e-05 0
1.155 2.81385e-05 0
1.2172 3.31262e-05 0
1.23992 3.94299e-05 0
1.24713 4.66745e-05 0
1.24915 5.40733e-05 0
1.24965 6.08499e-05 0
1.24975 6.63306e-05 0
1.24976 6.99335e-05 0
1.24973 7.1159e-05 0
1.24961 6.95986e-05 0
1.24912 6.49579e-05 0
1.24718 5.70947e-05 0
1.24017 4.60903e-05 0
1.21782 3.24057e-05 0
1.15605 1.71842e-05 0
1.01094 2.68109e-06 0
0.727743 -7.48457e-06 0
0.28014 -9.01399e-06 0
-0.280388 1.61492e-05 0
0.28013 1.4359e-07 0
0.727015 1.61115e-05 0
1.00975 2.29378e-05 0
1.15501 2.7276e-05 0
1.21721 3.16219e-05 0
1.23992 3.68633e-05 0
1.24713 4.27365e-05 0
1.24915 4.86048e-05 0
1.24965 5.3838e-05 0
1.24976 5.78958e-05 0
1.24977 6.03165e-05 0
1.24974 6.07082e-05 0
1.24962 5.87562e-05 0
1.24914 5.42426e-05 0
1.2472 4.70772e-05 0
1.24019 3.73581e-05 0
1.21784 2.55003e-05 0
1.15607 1.24908e-05 0
1.01096 2.59751e-07 0
0.727755 -8.07448e-06 0
0.280142 -8.73895e-06 0
-0.280387 1.54935e-05 0
0.280129 1.37769e-07 0
0.727018 1.54628e-05 0
1.00975 2.20769e-05 0
1.15501 2.6139e-05 0
1.21721 2.9943e-05 0
1.23993 3.43503e-05 0
1.24714 3.91746e-05 0
1.24915 4.38909e-05 0
1.24966 4.79802e-05 0
1.24976 5.10042e-05 0
1.24978 5.25943e-05 0
1.24975 5.24422e-05 0
1.24964 5.03053e-05 0
1.24916 4.60227e-05 0
1.24722 3.95405e-05 0
1.24021 3.09606e-05 0
1.21787 2.06465e-05 0
1.15609 9.43763e-06 0
1.01098 -1.02462e-06 0
0.727765 -8.04563e-06 0
0.280143 -8.26691e-06 0
-0.280386 1.47735e-05 0
0.280128 1.31373e-07 0
0.727021 1.47491e-05 0
1.00976 2.10753e-05 0
1.15502 2.48593e-05 0
1.21722 2.82227e-05 0
1.23993 3.19916e-05 0
1.24714 3.60319e-05 0
1.24916 3.99013e-05 0
1.24966 4.31655e-05 0
1.24977 4.5464e-05 0
1.24979 4.64992e-05 0
1.24976 4.60263e-05 0
1.24965 4.38571e-05 0
1.24917 3.98721e-05 0
1.24724 3.40411e-05 0
1.24023 2.64614e-05 0
1.21789 1.74432e-05 0
1.15611 7.6893e-06 0
1.01099 -1.41459e-06 0
0.727774 -7.53532e-06 0
0.280144 -7.64373e-06 0
-0.280385 1.40154e-05 0
0.280127 1.24637e-07 0
0.727023 1.39968e-05 0
1.00976 1.99983e-05 0
1.15502 2.35261e-05 0
1.21722 2.6549e-05 0
1.23994 2.98494e-05 0
1.24715 3.33263e-05 0
1.24917 3.65984e-05 0
1.24967 3.92949e-05 0
1.24978 4.11143e-05 0
1.24979 4.18124e-05 0
1.24977 4.11916e-05 0
1.24966 3.91031e-05 0
1.24919 3.54566e-05 0
1.24725 3.02356e-05 0
1.24025 2.35272e-05 0
1.2179 1.55891e-05 0
1.15613 6.99886e-06 0
1.01101 -1.0847e-06 0
0.727783 -6.63972e-06 0
0.280145 -6.90044e-06 0
-0.280384 1.32367e-05 0
0.280126 1.17716e-07 0
0.727026 1.32235e-05 0
1.00977 1.88889e-05 0
1.15503 2.21976e-05 0
1.21723 2.49768e-05 0
1.23994 2.79584e-05 0
1.24715 3.10586e-05 0
1.24917 3.39405e-05 0
1.24968 3.62808e-05 0
1.24979 3.78214e-05 0
1.2498 3.83573e-05 0
1.24978 3.77246e-05 0
1.24968 3.58021e-05 0
1.2492 3.25183e-05 0
1.24727 2.78629e-05 0
1.24027 2.19089e-05 0
1.21792 1.48632e-05 0
1.15615 7.1893e-06 0
1.01102 -1.56507e-07 0
0.727791 -5.42336e-06 0
0.280147 -6.05676e-06 0
-0.280383 1.24482e-05 0
0.280125 1.10708e-07 0
0.727028 1.24401e-05 0
1.00977 1.77744e-05 0
1.15503 2.09093e-05 0
1.21723 2.35375e-05 0
1.23995 2.63332e-05 0
1.24716 2.9218e-05 0
1.24918 3.18854e-05 0
1.24968 3.40468e-05 0
1.24979 3.54755e-05 0
1.24981 3.59934e-05 0
1.24979 3.54595e-05 0
1.24969 3.377e-05 0
1.24921 3.08635e-05 0
1.24728 2.67302e-05 0
1.24028 2.14261e-05 0
1.21794 1.51096e-05 0
1.15616 8.13966e-06 0
1.01103 1.29051e-06 0
0.7278 -3.92581e-06 0
0.280149 -5.12357e-06 0
-0.280382 1.16562e-05 0
0.280124 1.03669e-07 0
0.727031 1.1653e-05 0
1.00978 1.66701e-05 0