# vtk DataFile Version 3.0
vtk output
ASCII
DATASET UNSTRUCTURED_GRID
POINTS 1913 double
0.045977 0 0
0.045977 0.0952381 0
0.045977 0.142857 0
0.045977 0.190476 0
0.045977 0.238095 0
0.045977 0.285714 0
0.045977 0.333333 0
0.045977 0.380952 0
0.045977 0.428571 0
0.045977 0.47619 0
0.045977 0.52381 0
0.045977 0.571429 0
0.045977 0.619048 0
0.045977 0.666667 0
0.045977 0.714286 0
0.045977 0.761905 0
0.045977 0.809524 0
0.045977 0.857143 0
0.045977 0.904762 0
0.045977 0.952381 0
0.045977 1 0
0.091954 0 0
0.091954 0.047619 0
0.091954 0.0952381 0
0.091954 0.142857 0
0.091954 0.190476 0
0.091954 0.238095 0
0.091954 0.285714 0
0.091954 0.333333 0
0.091954 0.380952 0
0.091954 0.428571 0
0.091954 0.47619 0
0.091954 0.52381 0
0.091954 0.571429 0
0.091954 0.619048 0
0.091954 0.666667 0
0.091954 0.714286 0
0.091954 0.761905 0
0.091954 0.809524 0
0.091954 0.857143 0
0.091954 0.904762 0
0.091954 0.952381 0
0.091954 1 0
0.137931 0 0
0.137931 0.047619 0
0.137931 0.0952381 0
0.137931 0.142857 0
0.137931 0.190476 0
0.137931 0.238095 0
0.137931 0.285714 0
0.137931 0.333333 0
0.137931 0.380952 0
0.137931 0.428571 0
0.137931 0.47619 0
0.137931 0.52381 0
0.137931 0.571429 0
0.137931 0.619048 0
0.137931 0.666667 0
0.137931 0.714286 0
0.137931 0.761905 0
0.137931 0.809524 0
0.137931 0.857143 0
0.137931 0.904762 0
0.137931 0.952381 0
0.137931 1 0
0.183908 0 0
0.183908 0.047619 0
0.183908 0.0952381 0
0.183908 0.142857 0
0.183908 0.190476 0
0.183908 0.238095 0
0.183908 0.285714 0
0.183908 0.333333 0
0.183908 0.380952 0
0.183908 0.428571 0
0.183908 0.47619 0
0.183908 0.52381 0
0.183908 0.571429 0
0.183908 0.619048 0
0.183908 0.666667 0
0.183908 0.714286 0
0.183908 0.761905 0
0.183908 0.809524 0
0.183908 0.857143 0
0.183908 0.904762 0
0.183908 0.952381 0
0.183908 1 0
0.229885 0 0
0.229885 0.047619 0
0.229885 0.0952381 0
0.229885 0.142857 0
0.229885 0.190476 0
0.229885 0.238095 0
0.229885 0.285714 0
0.229885 0.333333 0
0.229885 0.380952 0
0.229885 0.428571 0
0.229885 0.47619 0
0.229885 0.52381 0
0.229885 0.571429 0
0.229885 0.619048 0
0.229885 0.666667 0
0.229885 0.714286 0
0.229885 0.761905 0
0.229885 0.809524 0
0.229885 0.857143 0
0.229885 0.904762 0
0.229885 0.952381 0
0.229885 1 0
0.275862 0 0
0.275862 0.047619 0
0.275862 0.0952381 0
0.275862 0.142857 0
0.275862 0.190476 0
0.275862 0.238095 0
0.275862 0.285714 0
0.275862 0.333333 0
0.275862 0.380952 0
0.275862 0.428571 0
0.275862 0.47619 0
0.275862 0.52381 0
0.275862 0.571429 0
0.275862 0.619048 0
0.275862 0.666667 0
0.275862 0.714286 0
0.275862 0.761905 0
0.275862 0.809524 0
0.275862 0.857143 0
0.275862 0.904762 0
0.275862 0.952381 0
0.275862 1 0
0.321839 0 0
0.321839 0.047619 0
0.321839 0.0952381 0
0.321839 0.142857 0
0.321839 0.190476 0
0.321839 0.238095 0
0.321839 0.285714 0
0.321839 0.333333 0
0.321839 0.380952 0
0.321839 0.428571 0
0.321839 0.47619 0
0.321839 0.52381 0
0.321839 0.571429 0
0.321839 0.619048 0
0.321839 0.666667 0
0.321839 0.714286 0
0.321839 0.761905 0
0.321839 0.809524 0
0.321839 0.857143 0
0.321839 0.904762 0
0.321839 0.952381 0
0.321839 1 0
0.367816 0 0
0.367816 0.047619 0
0.367816 0.0952381 0
0.367816 0.142857 0
0.367816 0.190476 0
0.367816 0.238095 0
0.367816 0.285714 0
0.367816 0.333333 0
0.367816 0.380952 0
0.367816 0.428571 0
0.367816 0.47619 0
0.367816 0.52381 0
0.367816 0.571429 0
0.367816 0.619048 0
0.367816 0.666667 0
0.367816 0.714286 0
0.367816 0.761905 0
0.367816 0.809524 0
0.367816 0.857143 0
0.367816 0.904762 0
0.367816 0.952381 0
0.367816 1 0
0.413793 0 0
0.413793 0.047619 0
0.413793 0.0952381 0
0.413793 0.142857 0
0.413793 0.190476 0
0.413793 0.238095 0
0.413793 0.285714 0
0.413793 0.333333 0
0.413793 0.380952 0
0.413793 0.428571 0
0.413793 0.47619 0
0.413793 0.52381 0
0.413793 0.571429 0
0.413793 0.619048 0
0.413793 0.666667 0
0.413793 0.714286 0
0.413793 0.761905 0
0.413793 0.809524 0
0.413793 0.857143 0
0.413793 0.904762 0
0.413793 0.952381 0
0.413793 1 0
0.45977 0 0
0.45977 0.047619 0
0.45977 0.0952381 0
0.45977 0.142857 0
0.45977 0.190476 0
0.45977 0.238095 0
0.45977 0.285714 0
0.45977 0.333333 0
0.45977 0.380952 0
0.45977 0.428571 0
0.45977 0.47619 0
0.45977 0.52381 0
0.45977 0.571429 0
0.45977 0.619048 0
0.45977 0.666667 0
0.45977 0.714286 0
0.45977 0.761905 0
0.45977 0.809524 0
0.45977 0.857143 0
0.45977 0.904762 0
0.45977 0.952381 0
0.45977 1 0
0.505747 0 0
0.505747 0.047619 0
0.505747 0.0952381 0
0.505747 0.142857 0
0.505747 0.190476 0
0.505747 0.238095 0
0.505747 0.285714 0
0.505747 0.333333 0
0.505747 0.380952 0
0.505747 0.428571 0
0.505747 0.47619 0
0.505747 0.52381 0
0.505747 0.571429 0
0.505747 0.619048 0
0.505747 0.666667 0
0.505747 0.714286 0
0.505747 0.761905 0
0.505747 0.809524 0
0.505747 0.857143 0
0.505747 0.904762 0
0.505747 0.952381 0
0.505747 1 0
0.551724 0 0
0.551724 0.047619 0
0.551724 0.0952381 0
0.551724 0.142857 0
0.551724 0.190476 0
0.551724 0.238095 0
0.551724 0.285714 0
0.551724 0.333333 0
0.551724 0.380952 0
0.551724 0.428571 0
0.551724 0.47619 0
0.551724 0.52381 0
0.551724 0.571429 0
0.551724 0.619048 0
0.551724 0.666667 0
0.551724 0.714286 0
0.551724 0.761905 0
0.551724 0.809524 0
0.551724 0.857143 0
0.551724 0.904762 0
0.551724 0.952381 0
0.551724 1 0
0.597701 0 0
0.597701 0.047619 0
0.597701 0.0952381 0
0.597701 0.142857 0
0.597701 0.190476 0
0.597701 0.238095 0
0.597701 0.285714 0
0.597701 0.333333 0
0.597701 0.380952 0
0.597701 0.428571 0
0.597701 0.47619 0
0.597701 0.52381 0
0.597701 0.571429 0
0.597701 0.619048 0
0.597701 0.666667 0
0.597701 0.714286 0
0.597701 0.761905 0
0.597701 0.809524 0
0.597701 0.857143 0
0.597701 0.904762 0
0.597701 0.952381 0
0.597701 1 0
0.643678 0 0
0.643678 0.047619 0
0.643678 0.0952381 0
0.643678 0.142857 0
0.643678 0.190476 0
0.643678 0.238095 0
0.643678 0.285714 0
0.643678 0.333333 0
0.643678 0.380952 0
0.643678 0.428571 0
0.643678 0.47619 0
0.643678 0.52381 0
0.643678 0.571429 0
0.643678 0.619048 0
0.643678 0.666667 0
0.643678 0.714286 0
0.643678 0.761905 0
0.643678 0.809524 0
0.643678 0.857143 0
0.643678 0.904762 0
0.643678 0.952381 0
0.643678 1 0
0.689655 0 0
0.689655 0.047619 0
0.689655 0.0952381 0
0.689655 0.142857 0
0.689655 0.190476 0
0.689655 0.238095 0
0.689655 0.285714 0
0.689655 0.333333 0
0.689655 0.380952 0
0.689655 0.428571 0
0.689655 0.47619 0
0.689655 0.52381 0
0.689655 0.571429 0
0.689655 0.619048 0
0.689655 0.666667 0
0.689655 0.714286 0
0.689655 0.761905 0
0.689655 0.809524 0
0.689655 0.857143 0
0.689655 0.904762 0
0.689655 0.952381 0
0.689655 1 0
0.735632 0 0
0.735632 0.047619 0
0.735632 0.0952381 0
0.735632 0.142857 0
0.735632 0.190476 0
0.735632 0.238095 0
0.735632 0.285714 0
0.735632 0.333333 0
0.735632 0.380952 0
0.735632 0.428571 0
0.735632 0.47619 0
0.735632 0.52381 0
0.735632 0.571429 0
0.735632 0.619048 0
0.735632 0.666667 0
0.735632 0.714286 0
0.735632 0.761905 0
0.735632 0.809524 0
0.735632 0.857143 0
0.735632 0.904762 0
0.735632 0.952381 0
0.735632 1 0
0.781609 0 0
0.781609 0.047619 0
0.781609 0.0952381 0
0.781609 0.142857 0
0.781609 0.190476 0
0.781609 0.238095 0
0.781609 0.285714 0
0.781609 0.333333 0
0.781609 0.380952 0
0.781609 0.428571 0
0.781609 0.47619 0
0.781609 0.52381 0
0.781609 0.571429 0
0.781609 0.619048 0
0.781609 0.666667 0
0.781609 0.714286 0
0.781609 0.761905 0
0.781609 0.809524 0
0.781609 0.857143 0
0.781609 0.904762 0
0.781609 0.952381 0
0.781609 1 0
0.827586 0 0
0.827586 0.047619 0
0.827586 0.0952381 0
0.827586 0.142857 0
0.827586 0.190476 0
0.827586 0.238095 0
0.827586 0.285714 0
0.827586 0.333333 0
0.827586 0.380952 0
0.827586 0.428571 0
0.827586 0.47619 0
0.827586 0.52381 0
0.827586 0.571429 0
0.827586 0.619048 0
0.827586 0.666667 0
0.827586 0.714286 0
0.827586 0.761905 0
0.827586 0.809524 0
0.827586 0.857143 0
0.827586 0.904762 0
0.827586 0.952381 0
0.827586 1 0
0.873563 0 0
0.873563 0.047619 0
0.873563 0.0952381 0
0.873563 0.142857 0
0.873563 0.190476 0
0.873563 0.238095 0
0.873563 0.285714 0
0.873563 0.333333 0
0.873563 0.380952 0
0.873563 0.428571 0
0.873563 0.47619 0
0.873563 0.52381 0
0.873563 0.571429 0
0.873563 0.619048 0
0.873563 0.666667 0
0.873563 0.714286 0
0.873563 0.761905 0
0.873563 0.809524 0
0.873563 0.857143 0
0.873563 0.904762 0
0.873563 0.952381 0
0.873563 1 0
0.91954 0 0
0.91954 0.047619 0
0.91954 0.0952381 0
0.91954 0.142857 0
0.91954 0.190476 0
0.91954 0.238095 0
0.91954 0.285714 0
0.91954 0.333333 0
0.91954 0.380952 0
0.91954 0.428571 0
0.91954 0.47619 0
0.91954 0.52381 0
0.91954 0.571429 0
0.91954 0.619048 0
0.91954 0.666667 0
0.91954 0.714286 0
0.91954 0.761905 0
0.91954 0.809524 0
0.91954 0.857143 0
0.91954 0.904762 0
0.91954 0.952381 0
0.91954 1 0
0.965517 0 0
0.965517 0.047619 0
0.965517 0.0952381 0
0.965517 0.142857 0
0.965517 0.190476 0
0.965517 0.238095 0
0.965517 0.285714 0
0.965517 0.333333 0
0.965517 0.380952 0
0.965517 0.428571 0
0.965517 0.47619 0
0.965517 0.52381 0
0.965517 0.571429 0
0.965517 0.619048 0
0.965517 0.666667 0
0.965517 0.714286 0
0.965517 0.761905 0
0.965517 0.809524 0
0.965517 0.857143 0
0.965517 0.904762 0
0.965517 0.952381 0
0.965517 1 0
1.01149 0 0
1.01149 0.047619 0
1.01149 0.0952381 0
1.01149 0.142857 0
1.01149 0.190476 0
1.01149 0.238095 0
1.01149 0.285714 0
1.01149 0.333333 0
1.01149 0.380952 0
1.01149 0.428571 0
1.01149 0.47619 0
1.01149 0.52381 0
1.01149 0.571429 0
1.01149 0.619048 0
1.01149 0.666667 0
1.01149 0.714286 0
1.01149 0.761905 0
1.01149 0.809524 0
1.01149 0.857143 0
1.01149 0.904762 0
1.01149 0.952381 0
1.01149 1 0
1.05747 0 0
1.05747 0.047619 0
1.05747 0.0952381 0
1.05747 0.142857 0
1.05747 0.190476 0
1.05747 0.238095 0
1.05747 0.285714 0
1.05747 0.333333 0
1.05747 0.380952 0
1.05747 0.428571 0
1.05747 0.47619 0
1.05747 0.52381 0
1.05747 0.571429 0
1.05747 0.619048 0
1.05747 0.666667 0
1.05747 0.714286 0
1.05747 0.761905 0
1.05747 0.809524 0
1.05747 0.857143 0
1.05747 0.904762 0
1.05747 0.952381 0
1.05747 1 0
1.10345 0 0
1.10345 0.047619 0
1.10345 0.0952381 0
1.10345 0.142857 0
1.10345 0.190476 0
1.10345 0.238095 0
1.10345 0.285714 0
1.10345 0.333333 0
1.10345 0.380952 0
1.10345 0.428571 0
1.10345 0.47619 0
1.10345 0.52381 0
1.10345 0.571429 0
[...]
POINT_DATA 1913
VECTORS velocity[m/s] double
-0 0.209501 0
0 0.209501 0
0 0.209487 0
0 0.181121 0
0 0.15083 0
0 0.122107 0
0 0.0951174 0
0 0.0695233 0
0 0.0449063 0
0 0.0208519 0
0 -0.00303984 0
0 -0.0271697 0
0 -0.0519662 0
0 -0.0779208 0
0 -0.105636 0
0 -0.135889 0
0 -0.169727 0
0 -0.208574 0
0 -0.253936 0
0 -0.302462 0
0 -0.309704 0
-0.872233 0.185256 0
0.872233 0.00163396 0
1.07452 0.185256 0
1.1019 0.208914 0
1.10376 0.184576 0
1.10224 0.153219 0
1.10057 0.123465 0
1.09922 0.0959218 0
1.09828 0.0700184 0
1.09773 0.0451919 0
1.09757 0.0209691 0
1.0978 -0.00307416 0
1.09845 -0.027351 0
1.09956 -0.0522984 0
1.10126 -0.0784192 0
1.10371 -0.106339 0
1.10717 -0.136899 0
1.11201 -0.171282 0
1.1183 -0.210882 0
1.12135 -0.254735 0
1.08149 -0.28605 0
0.775473 -0.235101 0
-0.694944 0.144689 0
0.694944 0.0012962 0
1.05168 0.144689 0
1.1254 0.189984 0
1.13403 0.178815 0
1.13097 0.151417 0
1.12716 0.122509 0
1.12423 0.0952239 0
1.12225 0.0695337 0
1.12112 0.0449258 0
1.12079 0.0209227 0
1.12124 -0.0028928 0
1.12253 -0.0269157 0
1.12478 -0.051557 0
1.12822 -0.0772842 0
1.13322 -0.104673 0
1.14037 -0.134464 0
1.15024 -0.167457 0
1.16064 -0.203304 0
1.15159 -0.235013 0
1.0323 -0.234537 0
0.54848 -0.146241 0
-0.556497 0.105549 0
0.556498 0.000944899 0
1.00795 0.105549 0
1.13618 0.161826 0
1.16049 0.164841 0
1.15888 0.144809 0
1.15351 0.118892 0
1.14904 0.0929429 0
1.14601 0.0680788 0
1.1443 0.0441287 0
1.14378 0.0207181 0
1.14444 -0.00251557 0
1.14633 -0.025917 0
1.14962 -0.0498382 0
1.15467 -0.0746673 0
1.16198 -0.100851 0
1.17223 -0.128837 0
1.18485 -0.158556 0
1.19126 -0.187167 0
1.15113 -0.202768 0
0.947049 -0.176614 0
0.407282 -0.0836333 0
-0.455501 0.0738528 0
0.455502 0.000660524 0
0.953614 0.0738528 0
1.13327 0.132312 0
1.17983 0.146415 0
1.18391 0.134525 0
1.17856 0.112934 0
1.17304 0.0892297 0
1.16913 0.0657534 0
1.1669 0.0428576 0
1.16622 0.0203687 0
1.16703 -0.00197658 0
1.16942 -0.0244449 0
1.1736 -0.0473052 0
1.17995 -0.070836 0
1.189 -0.0952988 0
1.20092 -0.12073 0
1.21248 -0.146034 0
1.20632 -0.166251 0
1.12588 -0.167588 0
0.857276 -0.127898 0
0.326534 -0.0478021 0
-0.384834 0.0504939 0
0.384835 0.000451241 0
0.897172 0.0504939 0
1.11966 0.105634 0
1.19131 0.126868 0
1.20475 0.122242 0
1.20145 0.105375 0
1.19571 0.0844468 0
1.19124 0.0627589 0
1.18861 0.0412183 0
1.18779 0.0199047 0
1.18873 -0.00131584 0
1.1915 -0.0226167 0
1.19632 -0.0441728 0
1.20357 -0.0661406 0
1.21356 -0.0885751 0
1.22535 -0.111076 0
1.232 -0.131637 0
1.20761 -0.144036 0
1.08756 -0.13518 0
0.779943 -0.0916782 0
0.280381 -0.0286419 0
-0.336518 0.0343661 0
0.336519 0.000306893 0
0.843934 0.0343661 0
1.09915 0.0834055 0
1.19578 0.108328 0
1.22104 0.109424 0
1.22166 0.0970216 0
1.21665 0.0790342 0
1.21204 0.0593443 0
1.20919 0.0393421 0
1.20828 0.019368 0
1.2093 -0.000573043 0
1.21231 -0.0205579 0
1.21753 -0.0406688 0
1.22523 -0.0609434 0
1.23529 -0.0812363 0
1.24521 -0.100753 0
1.24397 -0.116819 0
1.19906 -0.122801 0
1.04556 -0.107784 0
0.719081 -0.066149 0
0.252727 -0.0182881 0
-0.303635 0.0237228 0
0.303636 0.000211699 0
0.796586 0.0237228 0
1.07509 0.0657709 0
1.19472 0.0918543 0
1.23302 0.0970756 0
1.23902 0.0885474 0
1.23566 0.0733988 0
1.23135 0.0557516 0
1.22848 0.0373605 0
1.22754 0.0188025 0
1.22859 0.000216287 0
1.23173 -0.0183855 0
1.23711 -0.0370018 0
1.24482 -0.0555646 0
1.25413 -0.0737499 0
1.26072 -0.0904421 0
1.24975 -0.102565 0
1.18456 -0.103713 0
1.00536 -0.0856671 0
0.672871 -0.0484644 0
0.235071 -0.0123887 0
-0.280936 0.0168735 0
0.280937 0.000150472 0
0.755989 0.0168735 0
1.04991 0.0521851 0
1.18968 0.0777882 0
1.24125 0.0857615 0
1.25365 0.0804174 0
1.2527 0.0678563 0
1.24911 0.0521802 0
1.2464 0.0353856 0
1.24548 0.0182471 0
1.24655 0.00102258 0
1.2497 -0.0161974 0
1.25503 -0.0333425 0
1.26238 -0.050255 0
1.27025 -0.0664608 0
1.27243 -0.080605 0
1.25086 -0.0894417 0
1.16714 -0.0871859 0
0.969439 -0.0682414 0
0.63804 -0.0361893 0
0.22311 -0.00879896 0
-0.264791 0.0124847 0
0.264792 0.00011126 0
0.721896 0.0124847 0
1.02519 0.0418785 0
1.18198 0.0660639 0
1.24641 0.0757227 0
1.26578 0.072904 0
1.26784 0.0626176 0
1.26533 0.0487726 0
1.26295 0.0335003 0
1.26211 0.0177306 0
1.26318 0.00182247 0
1.26626 -0.0140686 0
1.27136 -0.0298167 0
1.27803 -0.0451907 0
1.2839 -0.0595947 0
1.28096 -0.0715118 0
1.24868 -0.0777051 0
1.14885 -0.073209 0
0.938493 -0.0546735 0
0.611596 -0.0275676 0
0.214615 -0.00648317 0
-0.252845 0.00962903 0
0.252846 8.57601e-05 0
0.693516 0.00962899 0
1.00184 0.0341 0
1.17266 0.0564256 0
1.24914 0.0669948 0
1.27571 0.066132 0
1.28121 0.0578017 0
1.28007 0.045616 0
1.27817 0.0317574 0
1.27747 0.0172704 0
1.27852 0.00259833 0
1.28146 -0.0120509 0
1.2862 -0.0265074 0
1.29194 -0.0404806 0
1.29541 -0.0532789 0
1.28694 -0.0632902 0
1.24434 -0.0674135 0
1.13095 -0.0615605 0
0.912323 -0.0441552 0
0.591239 -0.0214152 0
0.208357 -0.00492179 0
-0.243633 0.00771402 0
0.243633 6.86704e-05 0
0.66989 0.00771397 0
0.980284 0.0282163 0
1.16245 0.0485561 0
1.24997 0.0595003 0
1.28376 0.0601272 0
1.29297 0.0534573 0
1.29345 0.0427527 0
1.29216 0.0301833 0
1.29164 0.0168743 0
1.29267 0.00333739 0
1.29542 -0.0101762 0
1.2997 -0.0234619 0
1.3043 -0.0361803 0
1.30508 -0.0475676 0
1.29092 -0.0559713 0
1.23869 -0.0585089 0
1.11415 -0.0519382 0
0.890368 -0.0359991 0
0.575315 -0.016951 0
0.203606 -0.00383522 0
-0.236252 0.00638031 0
0.236253 5.67754e-05 0
0.650096 0.00638025 0
0.960647 0.0237329 0
1.15189 0.0421439 0
1.24937 0.0531092 0
1.2902 0.0548565 0
1.30331 0.0495864 0
1.30559 0.0401916 0
1.30501 0.0287843 0
1.30471 0.0165417 0
1.30572 0.00403094 0
1.30825 -0.00846068 0
1.31198 -0.0206997 0
1.31529 -0.0323066 0
1.31319 -0.0424651 0
1.29337 -0.049526 0
1.23235 -0.0508726 0
1.09876 -0.0440285 0
0.871978 -0.0296549 0
0.562653 -0.0136596 0
0.199903 -0.00306129 0
-0.230148 0.00541513 0
0.230149 4.8172e-05 0
0.633342 0.00541507 0
0.942871 0.0202802 0
1.1413 0.0369125 0
1.24768 0.0476755 0
1.29529 0.0502559 0
1.31238 0.046162 0
1.31661 0.0379201 0
1.31684 0.0275532 0
1.31679 0.016267 0
1.31778 0.00467351 0
1.32007 -0.00690874 0
1.32319 -0.0182209 0
1.3251 -0.02885 0
1.32001 -0.0379441 0
1.29467 -0.0438909 0
1.22574 -0.0443606 0
1.08488 -0.0375398 0
0.856535 -0.0246958 0
0.552421 -0.011197 0
0.196949 -0.00249981 0
-0.224968 0.00469222 0
0.224968 4.1731e-05 0
0.618991 0.00469217 0
0.926814 0.0175879 0
1.13091 0.0326286 0
1.24519 0.0430568 0
1.29924 0.0462489 0
1.32034 0.0431425 0
1.32662 0.0359132 0
1.32773 0.0264745 0
1.32799 0.0160416 0
1.32896 0.00526225 0
1.33099 -0.00551665 0
1.33345 -0.0160129 0
1.33388 -0.0257848 0
1.32575 -0.0339595 0
1.29513 -0.0389865 0
1.21915 -0.0388246 0
1.07248 -0.0322162 0
0.843502 -0.0207952 0
0.544024 -0.00932933 0
0.194536 -0.00208603 0
-0.220479 0.00413484 0
0.22048 3.67666e-05 0
0.60654 0.00413478 0
0.912293 0.0154602 0
1.12084 0.0291015 0
1.24211 0.0391232 0
1.30224 0.0427575 0
1.32732 0.0404801 0
1.33573 0.0341404 0
1.33781 0.0255289 0
1.3384 0.0158555 0
1.33937 0.00579631 0
1.34113 -0.00427556 0
1.34288 -0.0140552 0
1.34178 -0.0230765 0
1.33061 -0.030458 0
1.29497 -0.0347278 0
1.21278 -0.0341233 0
1.06146 -0.0278402 0
0.832433 -0.0177052 0
0.537032 -0.00789461 0
0.192523 -0.00177665 0
-0.216523 0.00369446 0
0.216524 3.28455e-05 0
0.595606 0.0036944 0
0.899123 0.0137551 0
1.11117 0.0261775 0
1.2386 0.035761 0
1.30444 0.0397081 0
1.33344 0.0381271 0
1.34405 0.0325694 0
1.34715 0.0246959 0
1.34811 0.0156989 0
1.3491 0.0062764 0
1.35057 -0.00317362 0
1.3516 -0.0123238 0
1.3489 -0.0206873 0
1.33473 -0.0273836 0
1.29439 -0.0310315 0
1.20671 -0.0301284 0
1.05167 -0.024231 0
0.822961 -0.0152378 0
0.531126 -0.00677867 0
0.190808 -0.00154199 0
-0.212989 0.0033391 0
0.21299 2.96822e-05 0
0.585893 0.00333904 0
0.887129 0.0123693 0
1.10191 0.0237344 0
1.23479 0.0328731 0
1.30597 0.0370342 0
1.33881 0.0360387 0
1.35165 0.0311696 0
1.35584 0.0239559 0
1.35721 0.0155628 0
1.35822 0.00670431 0
1.35941 -0.00219762 0
1.35967 -0.0107935 0
1.35537 -0.0185786 0
1.33826 -0.0246822 0
1.29352 -0.0278199 0
1.20102 -0.0267264 0
1.04299 -0.02124 0
0.814795 -0.01325 0
0.52607 -0.00589962 0
0.18932 -0.0013613 0
-0.209795 0.00304683 0
0.209797 2.70811e-05 0
0.577175 0.00304677 0
0.876157 0.011227 0
1.09309 0.021675 0
1.23077 0.0303775 0
1.30693 0.0346773 0
1.34351 0.0341744 0
1.35861 0.0299129 0
1.36394 0.023291 0
1.36576 0.0154391 0
1.36682 0.00708263 0
1.36771 -0.00133408 0
1.36719 -0.00943956 0
1.36126 -0.016714 0
1.34129 -0.0223034 0
1.29246 -0.0250226 0
1.19572 -0.0238194 0
1.03528 -0.0187467 0
0.807699 -0.0116329 0
0.521689 -0.00519788 0
0.188007 -0.00121983 0
-0.206881 0.00280215 0
0.206882 2.4904e-05 0
0.569278 0.0028021 0
0.86607 0.010272 0
1.08469 0.0199225 0
1.22662 0.0282063 0
1.30742 0.0325872 0
1.34763 0.0324988 0
1.36501 0.0287747 0
1.37152 0.0226855 0
1.37383 0.0153214 0
1.37495 0.00741438 0
1.37553 -0.000569971 0
1.37421 -0.00823872 0
1.36666 -0.0150598 0
1.34391 -0.0202014 0
1.2913 -0.0225774 0
1.19082 -0.0213235 0
1.02841 -0.0166532 0
0.801487 -0.0103032 0
0.517849 -0.00462959 0
0.18683 -0.00110698 0
-0.204201 0.00259389 0
0.204202 2.30511e-05 0
0.562067 0.00259384 0
0.856754 0.00946246 0
1.07669 0.0184163 0
1.22239 0.026303 0
1.3075 0.030721 0
1.35123 0.0309813 0
1.37089 0.0277336 0
1.37863 0.0221261 0
1.38147 0.0152042 0
1.38266 0.00770276 0
1.38294 0.000106834 0
1.3808 -0.00716997 0
1.37163 -0.0135861 0
1.34621 -0.0183359 0
1.29009 -0.02043 0
1.18631 -0.0191681 0
1.02228 -0.0148808 0
0.79601 -0.00919682 0
0.514449 -0.00416209 0
0.185762 -0.00101501 0
-0.20172 0.00241383 0
0.201722 2.14495e-05 0
0.555436 0.00241378 0
0.84811 0.00876686 0
1.06908 0.0171084 0
1.21813 0.0246209 0
1.30725 0.0290424 0
1.35436 0.029596 0
1.3763 0.0267718 0
1.38532 0.0216015 0
1.38871 0.0150833 0
1.38999 0.00795097 0
1.38997 0.000707288 0
1.387 -0.00621465 0
1.37621 -0.0122664 0
1.34823 -0.0166716 0
1.28888 -0.0185335 0
1.18218 -0.017294 0
1.01679 -0.0133661 0
0.791149 -0.00826432 0
0.511412 -0.00377088 0
0.184783 -0.000938254 0
-0.199412 0.0022559 0
0.199413 2.0045e-05 0
0.549303 0.00225586 0
0.840057 0.00816129 0
1.06183 0.0159607 0
1.21386 0.023122 0
1.30672 0.0275209 0
1.35709 0.0283208 0
1.3813 0.0258738 0
1.39161 0.0211023 0
1.3956 0.0149553 0
1.39699 0.00816199 0
1.39665 0.00124103 0
1.39284 -0.00535653 0
1.38047 -0.0110778 0
1.35003 -0.015178 0
1.28768 -0.0168481 0
1.17838 -0.015652 0
1.01187 -0.0120584 0
0.786812 -0.00746736 0
0.508678 -0.00343744 0
0.183878 -0.000872498 0
-0.197254 0.00211554 0
0.197256 1.87969e-05 0
0.543602 0.00211551 0
0.832527 0.00762743 0
1.05491 0.014943 0
1.20961 0.0217745 0
1.30595 0.0261308 0
1.35945 0.0271371 0
1.3859 0.0250268 0
1.39755 0.0206206 0
1.40216 0.0148173 0
1.40367 0.00833844 0
1.40302 0.00171634 0
1.39837 -0.00458175 0
1.38443 -0.0100009 0
1.35164 -0.0138292 0
1.28653 -0.0153399 0
1.17492 -0.0142011 0
1.00744 -0.0109166 0
0.782922 -0.00677617 0
0.506202 -0.0031477 0
0.183037 -0.000814615 0
-0.195231 0.00198932 0
0.195233 1.76745e-05 0
0.538281 0.0019893 0
0.825465 0.00715116 0
1.04832 0.0140313 0
1.20541 0.0205525 0
1.30498 0.0248505 0
1.36149 0.0260288 0
1.39016 0.0242199 0
1.40315 0.0201499 0
1.40841 0.0146669 0
1.41006 0.00848249 0
1.4091 0.00214013 0
1.4036 -0.0038787 0
1.38812 -0.00901926 0
1.3531 -0.0126033 0
1.28543 -0.0139806 0
1.17175 -0.0129077 0
1.00344 -0.00990832 0
0.779419 -0.00616758 0
0.50395 -0.00289096 0
0.182251 -0.000762274 0
-0.193329 0.0018746 0
0.19333 1.66547e-05 0
0.533298 0.00187459 0
0.818823 0.00672149 0
1.04202 0.0132061 0
1.20126 0.0194344 0
1.30384 0.0236614 0
1.36324 0.0249823 0
1.39409 0.0234437 0
1.40845 0.0196842 0
1.41439 0.014502 0
1.41619 0.00859578 0
1.41492 0.00251798 0
1.40856 -0.00323786 0
1.39159 -0.00811928 0
1.35443 -0.011482 0
1.28439 -0.0127466 0
1.16885 -0.0117444 0
0.999828 -0.00900736 0
0.776257 -0.00562364 0
0.501896 -0.00265912 0
0.181516 -0.000713743 0
-0.191537 0.00176936 0
0.191538 1.57192e-05 0
0.528619 0.00176937 0
0.812563 0.00632975 0
1.03601 0.0124517 0
1.19718 0.0184021 0
1.30257 0.0225479 0
1.36473 0.0239858 0
1.39772 0.0226899 0
1.41345 0.0192185 0
1.42009 0.0143203 0
1.42206 0.0086793 0
1.42047 0.00285419 0
1.41328 -0.00265164 0
1.39483 -0.00728993 0
1.35565 -0.0104503 0
1.28343 -0.0116185 0
1.16621 -0.0106887 0
0.996562 -0.00819316 0
0.773395 -0.00513049 0
0.500019 -0.00244609 0
0.180828 -0.000667763 0
-0.189845 0.00167202 0
0.189846 1.4854e-05 0
0.524217 0.00167205 0
0.806653 0.00596904 0
1.03027 0.0117552 0
1.19318 0.0174403 0
1.30118 0.0214961 0
1.36598 0.0230287 0
1.40107 0.0219511 0
1.41818 0.018748 0
1.42554 0.0141196 0
1.42768 0.00873343 0
1.42579 0.00315185 0
1.41776 -0.00211417 0
1.39789 -0.00652243 0
1.35678 -0.00949607 0
1.28253 -0.0105803 0
1.1638 -0.00972267 0
0.993606 -0.00744959 0
0.770805 -0.00467763 0
0.498303 -0.0022474 0
0.180184 -0.000623449 0
-0.188246 0.00158132 0
0.188248 1.40479e-05 0
0.520069 0.00158137 0
0.801067 0.00563375 0
1.02478 0.011106 0
1.18926 0.0165361 0
1.2997 0.0204941 0
1.36702 0.0221015 0
1.40417 0.0212203 0
1.42265 0.018268 0
1.43074 0.0138975 0
1.43307 0.00875787 0
1.43088 0.00341294 0
1.42201 -0.00162119 0
1.40076 -0.00581001 0
1.35783 -0.00860955 0
1.2817 -0.0096195 0
1.16161 -0.00883225 0
0.990931 -0.00676425 0
0.768459 -0.00425727 0
0.496736 -0.0020599 0
0.179583 -0.000580222 0
-0.186734 0.00149621 0
0.186736 1.32915e-05 0
0.516158 0.00149629 0
0.795785 0.00531922 0
1.01954 0.010495 0
1.18544 0.015678 0
1.29815 0.0195311 0
1.36787 0.0211956 0
1.40702 0.0204911 0
1.42687 0.0177741 0
1.4357 0.0136511 0
1.43823 0.00875168 0
1.43574 0.00363839 0
1.42606 -0.00116982 0
1.40346 -0.0051477 0
1.35881 -0.00778337 0
1.28094 -0.00872627 0
1.15961 -0.00800653 0
0.988512 -0.00612791 0
0.766339 -0.00386386 0
0.495308 -0.00188153 0
0.179024 -0.000537763 0
-0.185304 0.00141578 0
0.185305 1.25769e-05 0
0.512467 0.0014159 0
0.790788 0.0050214 0
1.01453 0.00991432 0
1.18172 0.0148561 0
1.29654 0.0185971 0
1.36855 0.0203026 0
1.40964 0.0197573 0
1.43085 0.0172615 0
1.44043 0.0133775 0
1.44317 0.00871332 0
1.44038 0.00382823 0
1.4299 -0.000758433 0
1.40601 -0.00453207 0
1.35972 -0.00701204 0
1.28025 -0.00789318 0
1.1578 -0.00723741 0
0.986327 -0.00553393 0
0.764426 -0.00349374 0
0.494012 -0.00171112 0
0.178506 -0.000495969 0
-0.183951 0.00133917 0
0.183952 1.18961e-05 0
0.508987 0.00133932 0
0.786065 0.00473665 0
1.00976 0.00935691 0
1.17811 0.0140611 0
1.2949 0.0176831 0
1.36908 0.0194147 0
1.41205 0.0190125 0
1.4346 0.0167256 0
1.44494 0.0130732 0
1.44789 0.00864076 0
1.44481 0.0039817 0
1.43355 -0.000386433 0
1.4084 -0.00396105 0
1.36057 -0.00629178 0
1.27962 -0.00711493 0
1.15616 -0.00651915 0
0.984358 -0.00497788 0
0.762706 -0.00314472 0
0.49284 -0.0015482 0
0.178029 -0.000454914 0
-0.182671 0.00126549 0
0.182672 1.12415e-05 0
0.505708 0.00126569 0
0.781605 0.00446151 0
1.00522 0.0088162 0
1.17462 0.0132845 0
1.29323 0.0167803 0
1.36947 0.0185245 0
1.41426 0.0182509 0
1.43813 0.0161618 0
1.44922 0.0127348 0
1.45239 0.00853155 0
1.44903 0.00409744 0
1.437 -5.40755e-05 0
1.41066 -0.00343363 0
1.36137 -0.00562022 0
1.27904 -0.00638799 0
1.15467 -0.00584801 0
0.982589 -0.00445711 0
0.761166 -0.00281585 0
0.491786 -0.00139288 0
0.177591 -0.00041481 0
-0.181461 0.00119377 0
0.181462 1.06044e-05 0
0.502623 0.00119404 0
0.777402 0.00419256 0
1.00091 0.00828597 0
1.17124 0.0125183 0
1.29154 0.0158808 0
1.36973 0.0176249 0
1.41628 0.0174665 0
1.44144 0.0155655 0
1.45328 0.0123586 0
1.45667 0.00838304 0
1.45304 0.00417367 0
1.44026 0.000237757 0
1.41277 -0.00294971 0
1.36211 -0.00499615 0
1.27852 -0.00571026 0
1.15333 -0.00522181 0
0.981006 -0.00397036 0
0.759793 -0.00250706 0
0.490843 -0.00124566 0
0.177191 -0.000375966 0
-0.18032 0.001123 0
0.180321 9.9758e-06 0
0.499729 0.00112335 0
0.77345 0.00392641 0
0.996822 0.00776025 0
1.168 0.011755 0
1.28986 0.0149766 0
1.36989 0.0167089 0
1.41812 0.0166539 0
1.44454 0.0149322 0
1.45712 0.0119413 0
1.46074 0.00819249 0
1.45684 0.00420838 0
1.44334 0.000487789 0
1.41475 -0.00250975 0
1.3628 -0.00441918 0
1.27805 -0.00508074 0
1.15212 -0.00463958 0
0.979594 -0.0035174 0
0.758576 -0.0022189 0
0.490004 -0.00110728 0
0.17683 -0.00033875 0
-0.179247 0.00105207 0
0.179247 9.3459e-06 0
0.497024 0.00105253 0
0.76975 0.00365974 0
0.992966 0.00723346 0
1.16489 0.0109877 0
1.28819 0.0140609 0
1.36994 0.0157706 0
1.41978 0.015808 0
1.44743 0.0142579 0
1.46074 0.0114795 0
1.46458 0.00795739 0
1.46043 0.00419961 0
1.44624 0.000694594 0
1.41659 -0.00211459 0
1.36344 -0.00388953 0
1.27763 -0.00449921 0
1.15104 -0.00410118 0
0.978342 -0.00309863 0
0.757504 -0.00195227 0
0.489263 -0.0009786 0
0.176504 -0.000303545 0
-0.178242 0.00097992 0
0.178242 8.7052e-06 0
0.494508 0.000980501 0
0.7663 0.00338951 0
0.989342 0.00670059 0
1.16192 0.0102101 0
1.28654 0.0131276 0
1.36991 0.0148045 0
1.42128 0.0149246 0
1.45011 0.0135394 0
1.46414 0.0109708 0
1.46821 0.00767564 0
1.46382 0.00414565 0
1.44895 0.000856848 0
1.4183 -0.00176514 0
1.36403 -0.00340768 0
1.27725 -0.0039659 0
1.15007 -0.00360696 0
0.977236 -0.00271477 0
0.756566 -0.00170813 0
0.488613 -0.000860424 0
0.176212 -0.000270712 0
-0.177306 0.00090558 0
0.177305 8.04517e-06 0
0.492183 0.000906311 0
0.763105 0.00311321 0
0.985955 0.00615767 0
1.1591 0.00941749 0
1.28492 0.0121719 0
1.36979 0.0138069 0
1.42262 0.0140008 0
1.45259 0.0127745 0
1.46732 0.0104133 0
1.47162 0.00734585 0
1.467 0.00404535 0
1.45148 0.00097359 0
1.41989 -0.00146213 0
1.36457 -0.00297411 0
1.2769 -0.00348115 0
1.14921 -0.00315736 0
0.976266 -0.00236653 0
0.755749 -0.00148733 0
0.488045 -0.000753418 0
0.175952 -0.000240558 0
-0.176441 0.000828329 0
0.17644 7.35935e-06 0
0.490053 0.000829226 0
0.760166 0.00282917 0
0.982808 0.00560211 0
1.15645 0.00860688 0
1.28334 0.0111911 0
1.36961 0.0127755 0
1.4238 0.0130352 0
1.45487 0.0119623 0
1.47029 0.00980673 0
1.47481 0.00696765 0
1.46996 0.00389835 0
1.45384 0.00104447 0
1.42135 -0.00120585 0
1.36506 -0.00258902 0
1.27659 -0.00304514 0
1.14845 -0.00275265 0
0.975418 -0.00205437 0
0.755041 -0.00129038 0
0.487551 -0.000658009 0
0.175721 -0.000213307 0
-0.17565 0.000747794 0
0.175648 6.64441e-06 0
0.488124 0.000748866 0
0.75749 0.00253686 0
0.979908 0.00503328 0
1.15395 0.00777755 0
1.28181 0.0101848 0
1.36936 0.0117105 0
1.42484 0.0120286 0
1.45696 0.0111039 0
1.47303 0.009152 0
1.47778 0.00654196 0
1.47272 0.00370534 0
1.45601 0.00106996 0
1.42269 -0.00099596 0
1.3655 -0.00225213 0
1.27631 -0.0026576 0
1.14778 -0.00239267 0
0.974682 -0.00177824 0
0.754432 -0.00111733 0
0.487124 -0.000574326 0
0.175517 -0.000189083 0
-0.174937 0.000664047 0
0.174933 5.90095e-06 0
0.486399 0.000665293 0
0.755081 0.00223712 0
0.97726 0.00445274 0
1.15163 0.00693154 0
1.28034 0.00915528 0
1.36905 0.0106149 0
1.42573 0.0109839 0
1.45884 0.0102025 0
1.47555 0.00845203 0
1.48052 0.00607122 0
1.47527 0.00346827 0
1.45801 0.00105162 0
1.4239 -0.000831236 0
1.3659 -0.00196239 0
1.27605 -0.0023176 0
1.14718 -0.0020766 0
0.974046 -0.00153746 0
0.75391 -0.000967727 0
0.486753 -0.00050217 0
0.175336 -0.000167902 0
-0.174303 0.000577649 0
0.174299 5.13395e-06 0
0.484882 0.000579056 0
0.752943 0.00193223 0
0.974868 0.0038645 0
1.14948 0.00607391 0
1.27894 0.00810826 0
1.3687 0.00949425 0
1.42649 0.00990705 0
1.46053 0.00926341 0
1.47785 0.00771165 0
1.48303 0.00555952 0
1.4776 0.00319053 0
1.45983 0.00099213 0
1.425 -0.000709475 0
1.36624 -0.00171792 0
1.27582 -0.00202344 0
1.14666 -0.00180286 0
0.973497 -0.00133066 0
0.753462 -0.000840534 0
0.486432 -0.000441019 0
0.175175 -0.000149673 0
-0.173753 0.00048965 0
0.173747 4.3527e-06 0
0.483577 0.000491193 0
0.751079 0.0016259 0
0.972736 0.00327493 0
1.14752 0.0052127 0
1.2776 0.00705244 0
1.3683 0.0083575 0
1.42711 0.00880641 0
1.46203 0.00829442 0
1.47993 0.00693771 0
1.48532 0.00501271 0
1.47972 0.00287692 0
1.46147 0.000895428 0
1.42597 -0.000627424 0
1.36654 -0.00151591 0
1.27561 -0.00177256 0
1.14621 -0.0015691 0
0.973025 -0.00115578 0
0.753077 -0.00073421 0
0.486152 -0.000390052 0
0.175032 -0.000134207 0
-0.173286 0.000401522 0
0.173279 3.57021e-06 0
0.482483 0.000403162 0
0.749488 0.00132302 0
0.970867 0.00269247 0
1.14575 0.0043587 0
1.27634 0.00599954 0
1.36787 0.00721632 0