# vtk DataFile Version 3.0
vtk output
ASCII
DATASET UNSTRUCTURED_GRID
POINTS 1913 double
0.045977 0 0
0.045977 0.0952381 0
0.045977 0.142857 0
0.045977 0.190476 0
0.045977 0.238095 0
0.045977 0.285714 0
0.045977 0.333333 0
0.045977 0.380952 0
0.045977 0.428571 0
0.045977 0.47619 0
0.045977 0.52381 0
0.045977 0.571429 0
0.045977 0.619048 0
0.045977 0.666667 0
0.045977 0.714286 0
0.045977 0.761905 0
0.045977 0.809524 0
0.045977 0.857143 0
0.045977 0.904762 0
0.045977 0.952381 0
0.045977 1 0
0.091954 0 0
0.091954 0.047619 0
0.091954 0.0952381 0
0.091954 0.142857 0
0.091954 0.190476 0
0.091954 0.238095 0
0.091954 0.285714 0
0.091954 0.333333 0
0.091954 0.380952 0
0.091954 0.428571 0
0.091954 0.47619 0
0.091954 0.52381 0
0.091954 0.571429 0
0.091954 0.619048 0
0.091954 0.666667 0
0.091954 0.714286 0
0.091954 0.761905 0
0.091954 0.809524 0
0.091954 0.857143 0
0.091954 0.904762 0
0.091954 0.952381 0
0.091954 1 0
0.137931 0 0
0.137931 0.047619 0
0.137931 0.0952381 0
0.137931 0.142857 0
0.137931 0.190476 0
0.137931 0.238095 0
0.137931 0.285714 0
0.137931 0.333333 0
0.137931 0.380952 0
0.137931 0.428571 0
0.137931 0.47619 0
0.137931 0.52381 0
0.137931 0.571429 0
0.137931 0.619048 0
0.137931 0.666667 0
0.137931 0.714286 0
0.137931 0.761905 0
0.137931 0.809524 0
0.137931 0.857143 0
0.137931 0.904762 0
0.137931 0.952381 0
0.137931 1 0
0.183908 0 0
0.183908 0.047619 0
0.183908 0.0952381 0
0.183908 0.142857 0
0.183908 0.190476 0
0.183908 0.238095 0
0.183908 0.285714 0
0.183908 0.333333 0
0.183908 0.380952 0
0.183908 0.428571 0
0.183908 0.47619 0
0.183908 0.52381 0
0.183908 0.571429 0
0.183908 0.619048 0
0.183908 0.666667 0
0.183908 0.714286 0
0.183908 0.761905 0
0.183908 0.809524 0
0.183908 0.857143 0
0.183908 0.904762 0
0.183908 0.952381 0
0.183908 1 0
0.229885 0 0
0.229885 0.047619 0
0.229885 0.0952381 0
0.229885 0.142857 0
0.229885 0.190476 0
0.229885 0.238095 0
0.229885 0.285714 0
0.229885 0.333333 0
0.229885 0.380952 0
0.229885 0.428571 0
0.229885 0.47619 0
0.229885 0.52381 0
0.229885 0.571429 0
0.229885 0.619048 0
0.229885 0.666667 0
0.229885 0.714286 0
0.229885 0.761905 0
0.229885 0.809524 0
0.229885 0.857143 0
0.229885 0.904762 0
0.229885 0.952381 0
0.229885 1 0
0.275862 0 0
0.275862 0.047619 0
0.275862 0.0952381 0
0.275862 0.142857 0
0.275862 0.190476 0
0.275862 0.238095 0
0.275862 0.285714 0
0.275862 0.333333 0
0.275862 0.380952 0
0.275862 0.428571 0
0.275862 0.47619 0
0.275862 0.52381 0
0.275862 0.571429 0
0.275862 0.619048 0
0.275862 0.666667 0
0.275862 0.714286 0
0.275862 0.761905 0
0.275862 0.809524 0
0.275862 0.857143 0
0.275862 0.904762 0
0.275862 0.952381 0
0.275862 1 0
0.321839 0 0
0.321839 0.047619 0
0.321839 0.0952381 0
0.321839 0.142857 0
0.321839 0.190476 0
0.321839 0.238095 0
0.321839 0.285714 0
0.321839 0.333333 0
0.321839 0.380952 0
0.321839 0.428571 0
0.321839 0.47619 0
0.321839 0.52381 0
0.321839 0.571429 0
0.321839 0.619048 0
0.321839 0.666667 0
0.321839 0.714286 0
0.321839 0.761905 0
0.321839 0.809524 0
0.321839 0.857143 0
0.321839 0.904762 0
0.321839 0.952381 0
0.321839 1 0
0.367816 0 0
0.367816 0.047619 0
0.367816 0.0952381 0
0.367816 0.142857 0
0.367816 0.190476 0
0.367816 0.238095 0
0.367816 0.285714 0
0.367816 0.333333 0
0.367816 0.380952 0
0.367816 0.428571 0
0.367816 0.47619 0
0.367816 0.52381 0
0.367816 0.571429 0
0.367816 0.619048 0
0.367816 0.666667 0
0.367816 0.714286 0
0.367816 0.761905 0
0.367816 0.809524 0
0.367816 0.857143 0
0.367816 0.904762 0
0.367816 0.952381 0
0.367816 1 0
0.413793 0 0
0.413793 0.047619 0
0.413793 0.0952381 0
0.413793 0.142857 0
0.413793 0.190476 0
0.413793 0.238095 0
0.413793 0.285714 0
0.413793 0.333333 0
0.413793 0.380952 0
0.413793 0.428571 0
0.413793 0.47619 0
0.413793 0.52381 0
0.413793 0.571429 0
0.413793 0.619048 0
0.413793 0.666667 0
0.413793 0.714286 0
0.413793 0.761905 0
0.413793 0.809524 0
0.413793 0.857143 0
0.413793 0.904762 0
0.413793 0.952381 0
0.413793 1 0
0.45977 0 0
0.45977 0.047619 0
0.45977 0.0952381 0
0.45977 0.142857 0
0.45977 0.190476 0
0.45977 0.238095 0
0.45977 0.285714 0
0.45977 0.333333 0
0.45977 0.380952 0
0.45977 0.428571 0
0.45977 0.47619 0
0.45977 0.52381 0
0.45977 0.571429 0
0.45977 0.619048 0
0.45977 0.666667 0
0.45977 0.714286 0
0.45977 0.761905 0
0.45977 0.809524 0
0.45977 0.857143 0
0.45977 0.904762 0
0.45977 0.952381 0
0.45977 1 0
0.505747 0 0
0.505747 0.047619 0
0.505747 0.0952381 0
0.505747 0.142857 0
0.505747 0.190476 0
0.505747 0.238095 0
0.505747 0.285714 0
0.505747 0.333333 0
0.505747 0.380952 0
0.505747 0.428571 0
0.505747 0.47619 0
0.505747 0.52381 0
0.505747 0.571429 0
0.505747 0.619048 0
0.505747 0.666667 0
0.505747 0.714286 0
0.505747 0.761905 0
0.505747 0.809524 0
0.505747 0.857143 0
0.505747 0.904762 0
0.505747 0.952381 0
0.505747 1 0
0.551724 0 0
0.551724 0.047619 0
0.551724 0.0952381 0
0.551724 0.142857 0
0.551724 0.190476 0
0.551724 0.238095 0
0.551724 0.285714 0
0.551724 0.333333 0
0.551724 0.380952 0
0.551724 0.428571 0
0.551724 0.47619 0
0.551724 0.52381 0
0.551724 0.571429 0
0.551724 0.619048 0
0.551724 0.666667 0
0.551724 0.714286 0
0.551724 0.761905 0
0.551724 0.809524 0
0.551724 0.857143 0
0.551724 0.904762 0
0.551724 0.952381 0
0.551724 1 0
0.597701 0 0
0.597701 0.047619 0
0.597701 0.0952381 0
0.597701 0.142857 0
0.597701 0.190476 0
0.597701 0.238095 0
0.597701 0.285714 0
0.597701 0.333333 0
0.597701 0.380952 0
0.597701 0.428571 0
0.597701 0.47619 0
0.597701 0.52381 0
0.597701 0.571429 0
0.597701 0.619048 0
0.597701 0.666667 0
0.597701 0.714286 0
0.597701 0.761905 0
0.597701 0.809524 0
0.597701 0.857143 0
0.597701 0.904762 0
0.597701 0.952381 0
0.597701 1 0
0.643678 0 0
0.643678 0.047619 0
0.643678 0.0952381 0
0.643678 0.142857 0
0.643678 0.190476 0
0.643678 0.238095 0
0.643678 0.285714 0
0.643678 0.333333 0
0.643678 0.380952 0
0.643678 0.428571 0
0.643678 0.47619 0
0.643678 0.52381 0
0.643678 0.571429 0
0.643678 0.619048 0
0.643678 0.666667 0
0.643678 0.714286 0
0.643678 0.761905 0
0.643678 0.809524 0
0.643678 0.857143 0
0.643678 0.904762 0
0.643678 0.952381 0
0.643678 1 0
0.689655 0 0
0.689655 0.047619 0
0.689655 0.0952381 0
0.689655 0.142857 0
0.689655 0.190476 0
0.689655 0.238095 0
0.689655 0.285714 0
0.689655 0.333333 0
0.689655 0.380952 0
0.689655 0.428571 0
0.689655 0.47619 0
0.689655 0.52381 0
0.689655 0.571429 0
0.689655 0.619048 0
0.689655 0.666667 0
0.689655 0.714286 0
0.689655 0.761905 0
0.689655 0.809524 0
0.689655 0.857143 0
0.689655 0.904762 0
0.689655 0.952381 0
0.689655 1 0
0.735632 0 0
0.735632 0.047619 0
0.735632 0.0952381 0
0.735632 0.142857 0
0.735632 0.190476 0
0.735632 0.238095 0
0.735632 0.285714 0
0.735632 0.333333 0
0.735632 0.380952 0
0.735632 0.428571 0
0.735632 0.47619 0
0.735632 0.52381 0
0.735632 0.571429 0
0.735632 0.619048 0
0.735632 0.666667 0
0.735632 0.714286 0
0.735632 0.761905 0
0.735632 0.809524 0
0.735632 0.857143 0
0.735632 0.904762 0
0.735632 0.952381 0
0.735632 1 0
0.781609 0 0
0.781609 0.047619 0
0.781609 0.0952381 0
0.781609 0.142857 0
0.781609 0.190476 0
0.781609 0.238095 0
0.781609 0.285714 0
0.781609 0.333333 0
0.781609 0.380952 0
0.781609 0.428571 0
0.781609 0.47619 0
0.781609 0.52381 0
0.781609 0.571429 0
0.781609 0.619048 0
0.781609 0.666667 0
0.781609 0.714286 0
0.781609 0.761905 0
0.781609 0.809524 0
0.781609 0.857143 0
0.781609 0.904762 0
0.781609 0.952381 0
0.781609 1 0
0.827586 0 0
0.827586 0.047619 0
0.827586 0.0952381 0
0.827586 0.142857 0
0.827586 0.190476 0
0.827586 0.238095 0
0.827586 0.285714 0
0.827586 0.333333 0
0.827586 0.380952 0
0.827586 0.428571 0
0.827586 0.47619 0
0.827586 0.52381 0
0.827586 0.571429 0
0.827586 0.619048 0
0.827586 0.666667 0
0.827586 0.714286 0
0.827586 0.761905 0
0.827586 0.809524 0
0.827586 0.857143 0
0.827586 0.904762 0
0.827586 0.952381 0
0.827586 1 0
0.873563 0 0
0.873563 0.047619 0
0.873563 0.0952381 0
0.873563 0.142857 0
0.873563 0.190476 0
0.873563 0.238095 0
0.873563 0.285714 0
0.873563 0.333333 0
0.873563 0.380952 0
0.873563 0.428571 0
0.873563 0.47619 0
0.873563 0.52381 0
0.873563 0.571429 0
0.873563 0.619048 0
0.873563 0.666667 0
0.873563 0.714286 0
0.873563 0.761905 0
0.873563 0.809524 0
0.873563 0.857143 0
0.873563 0.904762 0
0.873563 0.952381 0
0.873563 1 0
0.91954 0 0
0.91954 0.047619 0
0.91954 0.0952381 0
0.91954 0.142857 0
0.91954 0.190476 0
0.91954 0.238095 0
0.91954 0.285714 0
0.91954 0.333333 0
0.91954 0.380952 0
0.91954 0.428571 0
0.91954 0.47619 0
0.91954 0.52381 0
0.91954 0.571429 0
0.91954 0.619048 0
0.91954 0.666667 0
0.91954 0.714286 0
0.91954 0.761905 0
0.91954 0.809524 0
0.91954 0.857143 0
0.91954 0.904762 0
0.91954 0.952381 0
0.91954 1 0
0.965517 0 0
0.965517 0.047619 0
0.965517 0.0952381 0
0.965517 0.142857 0
0.965517 0.190476 0
0.965517 0.238095 0
0.965517 0.285714 0
0.965517 0.333333 0
0.965517 0.380952 0
0.965517 0.428571 0
0.965517 0.47619 0
0.965517 0.52381 0
0.965517 0.571429 0
0.965517 0.619048 0
0.965517 0.666667 0
0.965517 0.714286 0
0.965517 0.761905 0
0.965517 0.809524 0
0.965517 0.857143 0
0.965517 0.904762 0
0.965517 0.952381 0
0.965517 1 0
1.01149 0 0
1.01149 0.047619 0
1.01149 0.0952381 0
1.01149 0.142857 0
1.01149 0.190476 0
1.01149 0.238095 0
1.01149 0.285714 0
1.01149 0.333333 0
1.01149 0.380952 0
1.01149 0.428571 0
1.01149 0.47619 0
1.01149 0.52381 0
1.01149 0.571429 0
1.01149 0.619048 0
1.01149 0.666667 0
1.01149 0.714286 0
1.01149 0.761905 0
1.01149 0.809524 0
1.01149 0.857143 0
1.01149 0.904762 0
1.01149 0.952381 0
1.01149 1 0
1.05747 0 0
1.05747 0.047619 0
1.05747 0.0952381 0
1.05747 0.142857 0
1.05747 0.190476 0
1.05747 0.238095 0
1.05747 0.285714 0
1.05747 0.333333 0
1.05747 0.380952 0
1.05747 0.428571 0
1.05747 0.47619 0
1.05747 0.52381 0
1.05747 0.571429 0
1.05747 0.619048 0
1.05747 0.666667 0
1.05747 0.714286 0
1.05747 0.761905 0
1.05747 0.809524 0
1.05747 0.857143 0
1.05747 0.904762 0
1.05747 0.952381 0
1.05747 1 0
1.10345 0 0
1.10345 0.047619 0
1.10345 0.0952381 0
1.10345 0.142857 0
1.10345 0.190476 0
1.10345 0.238095 0
1.10345 0.285714 0
1.10345 0.333333 0
1.10345 0.380952 0
1.10345 0.428571 0
1.10345 0.47619 0
1.10345 0.52381 0
1.10345 0.571429 0
[...]
POINT_DATA 1913
VECTORS velocity[m/s] double
-0 0.209178 0
0 0.209184 0
0 0.209166 0
0 0.180998 0
0 0.151146 0
0 0.12311 0
0 0.0970403 0
0 0.07257 0
0 0.049246 0
0 0.0266125 0
0 0.00422224 0
0 -0.0183782 0
0 -0.0416762 0
0 -0.0662306 0
0 -0.0927219 0
0 -0.122021 0
0 -0.155287 0
0 -0.194092 0
0 -0.240164 0
0 -0.290677 0
0 -0.302437 0
-0.869614 0.184753 0
0.869616 0.00162953 0
1.0716 0.184759 0
1.09879 0.208335 0
1.10043 0.184168 0
1.09869 0.153244 0
1.09681 0.124194 0
1.09527 0.0976133 0
1.09417 0.0729 0
1.0935 0.0494524 0
1.09326 0.0267524 0
1.09345 0.00432651 0
1.09411 -0.0182923 0
1.09529 -0.041601 0
1.09713 -0.06617 0
1.09979 -0.0927034 0
1.10358 -0.122135 0
1.10887 -0.155766 0
1.11583 -0.195183 0
1.12007 -0.239919 0
1.0826 -0.274404 0
0.779208 -0.230033 0
-0.692826 0.144036 0
0.692822 0.00129035 0
1.04886 0.144042 0
1.12214 0.188999 0
1.1303 0.177865 0
1.12675 0.150867 0
1.12248 0.122693 0
1.11915 0.096444 0
1.11682 0.0720521 0
1.11543 0.0489593 0
1.11493 0.0266388 0
1.1153 0.00462163 0
1.11662 -0.017542 0
1.11903 -0.0403217 0
1.12276 -0.0642498 0
1.12823 -0.0899769 0
1.13606 -0.118336 0
1.14694 -0.150276 0
1.15904 -0.185822 0
1.15338 -0.218975 0
1.03977 -0.223385 0
0.557123 -0.143049 0
-0.555024 0.104773 0
0.555014 0.000937971 0
1.00546 0.104779 0
1.13291 0.160323 0
1.15638 0.163087 0
1.15397 0.143352 0
1.14784 0.118202 0
1.14271 0.0934005 0
1.13913 0.0699958 0
1.137 0.0477575 0
1.1362 0.0262553 0
1.13672 0.00507219 0
1.13863 -0.0161902 0
1.14214 -0.037939 0
1.14761 -0.0606216 0
1.15562 -0.0847536 0
1.16692 -0.110887 0
1.18128 -0.139192 0
1.19107 -0.167499 0
1.15765 -0.185409 0
0.962225 -0.16583 0
0.419022 -0.0813311 0
-0.45479 0.0729803 0
0.454775 0.000652754 0
0.951848 0.0729863 0
1.13025 0.130198 0
1.17545 0.143601 0
1.17827 0.131806 0
1.1718 0.110997 0
1.16532 0.0885879 0
1.16062 0.0667904 0
1.15777 0.0458698 0
1.15667 0.0255858 0
1.15726 0.00561829 0
1.15965 -0.0143512 0
1.16406 -0.0346409 0
1.17093 -0.0555801 0
1.18087 -0.0774959 0
1.19426 -0.10056 0
1.20863 -0.124063 0
1.20838 -0.144073 0
1.13876 -0.148696 0
0.880655 -0.116975 0
0.340511 -0.0455404 0
-0.384978 0.0495488 0
0.384958 0.000442838 0
0.896623 0.0495549 0
1.11733 0.102818 0
1.18686 0.122729 0
1.19837 0.117877 0
1.19345 0.101775 0
1.18638 0.0823222 0
1.18083 0.0625942 0
1.17737 0.0433642 0
1.17596 0.0246273 0
1.17656 0.00618873 0
1.17925 -0.0121738 0
1.18429 -0.0306765 0
1.1921 -0.0495168 0
1.20315 -0.0688162 0
1.21697 -0.0883626 0
1.22796 -0.106724 0
1.21285 -0.119067 0
1.10815 -0.114434 0
0.8117 -0.0799976 0
0.296557 -0.0259298 0
-0.337587 0.0333155 0
0.33756 0.000297561 0
0.845211 0.0333229 0
1.09812 0.0797128 0
1.19155 0.102503 0
1.21393 0.102934 0
1.21225 0.0912585 0
1.20545 0.0749696 0
1.19941 0.0575974 0
1.19548 0.0403259 0
1.19378 0.0233836 0
1.1943 0.00670895 0
1.19713 -0.00981926 0
1.2025 -0.026314 0
1.21075 -0.0428433 0
1.22204 -0.059335 0
1.23471 -0.0752554 0
1.2399 -0.0887169 0
1.2084 -0.0948069 0
1.07492 -0.0848469 0
0.759513 -0.053184 0
0.271537 -0.0148921 0
-0.305729 0.0224087 0
0.305696 0.000200041 0
0.800436 0.0224205 0
1.07613 0.0608369 0
1.19115 0.0837841 0
1.22522 0.0878026 0
1.22799 0.0799706 0
1.22223 0.0668263 0
1.2161 0.0519647 0
1.21185 0.0368334 0
1.20989 0.0218592 0
1.21027 0.00710824 0
1.21307 -0.0074421 0
1.21847 -0.0218071 0
1.22669 -0.0359367 0
1.23743 -0.0495948 0
1.24773 -0.0620187 0
1.24579 -0.0711444 0
1.1988 -0.072575 0
1.04436 -0.060337 0
0.722558 -0.0339348 0
0.257176 -0.00825105 0
-0.284309 0.0150204 0
0.284263 0.000134044 0
0.763359 0.0150391 0
1.05398 0.0454462 0
1.18729 0.0667101 0
1.2328 0.0728718 0
1.2407 0.0682405 0
1.2366 0.0581106 0
1.23073 0.0458318 0
1.22632 0.0329582 0
1.22415 0.0200632 0
1.22434 0.00732801 0
1.22696 -0.00517685 0
1.23213 -0.0173766 0
1.23989 -0.0291189 0
1.24944 -0.0400411 0
1.25656 -0.0492537 0
1.24719 -0.0547557 0
1.187 -0.0530151 0
1.01889 -0.0406052 0
0.697777 -0.020153 0
0.249227 -0.00400746 0
-0.269958 0.00980677 0
0.269895 8.7523e-05 0
0.734015 0.00983261 0
1.03347 0.0327482 0
1.18135 0.0512073 0
1.23729 0.0583872 0
1.25049 0.0563493 0
1.24847 0.0490423 0
1.24317 0.0393496 0
1.23879 0.0287892 0
1.23646 0.0180233 0
1.23643 0.00733104 0
1.23875 -0.00313057 0
1.24348 -0.0132056 0
1.25045 -0.0226573 0
1.25835 -0.0310386 0
1.26189 -0.0374304 0
1.24553 -0.0400752 0
1.17503 -0.0364443 0
0.99916 -0.0251923 0
0.682206 -0.0104175 0
0.245375 -0.00124181 0
-0.260598 0.00596961 0
0.26051 5.33138e-05 0
0.711906 0.00599971 0
1.01566 0.0222473 0
1.17444 0.037332 0
1.23927 0.0446863 0
1.25757 0.0446712 0
1.25784 0.0399242 0
1.25339 0.0327303 0
1.2492 0.0244572 0
1.2468 0.0157983 0
1.24654 0.00710868 0
1.24849 -0.00137901 0
1.25262 -0.00943915 0
1.25856 -0.0167717 0
1.26454 -0.0228878 0
1.26446 -0.0269231 0
1.24204 -0.0274762 0
1.16419 -0.0229953 0
0.984913 -0.0136317 0
0.673365 -0.00378008 0
0.244195 0.000499728 0
-0.25491 0.00312472 0
0.254793 2.79599e-05 0
0.696235 0.0031545 0
1.00111 0.0137697 0
1.16735 0.0253421 0
1.2393 0.0322521 0
1.26216 0.0337002 0
1.2648 0.0311542 0
1.26139 0.026254 0
1.25757 0.020139 0
1.25521 0.013481 0
1.25475 0.00668226 0
1.25629 3.46911e-05 0
1.25972 -0.00618306 0
1.26448 -0.0116317 0
1.26845 -0.0158222 0
1.26501 -0.0180071 0
1.23773 -0.0171847 0
1.15516 -0.0126385 0
0.975419 -0.00543633 0
0.669252 0.000456218 0
0.244696 0.00149161 0
-0.251946 0.00110297 0
0.2518 9.93699e-06 0
0.686003 0.00112816 0
0.989958 0.00728651 0
1.1607 0.0155539 0
1.23792 0.0215955 0
1.26464 0.0239565 0
1.26955 0.0231586 0
1.26731 0.0202273 0
1.26402 0.0160343 0
1.26178 0.0111851 0
1.26119 0.00609753 0
1.26231 0.00109896 0
1.265 -0.00350028 0
1.26855 -0.00734788 0
1.27058 -0.00998984 0
1.26423 -0.0108318 0
1.23336 -0.00925379 0
1.14823 -0.00516791 0
0.969748 -6.56669e-05 0
0.66827 0.00287108 0
0.246154 0.00194173 0
-0.250917 -0.000206641 0
0.250747 -1.74848e-06 0
0.680075 -0.000188553 0
0.981993 0.00271875 0
1.15488 0.00814261 0
1.23565 0.0130786 0
1.26542 0.0158466 0
1.2724 0.0162924 0
1.27137 0.0149184 0
1.26872 0.0123265 0
1.26671 0.00902456 0
1.26603 0.00541373 0
1.26677 0.0018302 0
1.26873 -0.0014083 0
1.27111 -0.00396162 0
1.27141 -0.00543624 0
1.26272 -0.00539979 0
1.22943 -0.00355229 0
1.14332 -0.00021165 0
0.96693 0.00306895 0
0.669186 0.00397501 0
0.248047 0.00202442 0
-0.251141 -0.000931634 0
0.250954 -8.23005e-06 0
0.677285 -0.000921036 0
0.976773 -0.000158319 0
1.15013 0.00302701 0
1.233 0.00679706 0
1.26501 0.00956028 0
1.27374 0.0107595 0
1.27389 0.0105019 0
1.27192 0.00914774 0
1.27021 0.00709169 0
1.2695 0.00469152 0
1.26991 0.00226657 0
1.27121 0.00011901 0
1.27255 -0.00144379 0
1.27139 -0.00210251 0
1.26096 -0.0015736 0
1.22622 0.000207718 0
1.14017 0.00271596 0
0.966073 0.0045602 0
0.671086 0.0042083 0
0.250019 0.00188344 0
-0.252058 -0.00122355 0
0.251861 -1.08532e-05 0
0.676566 -0.00121924 0
0.973715 -0.00169603 0
1.14651 -0.000117004 0
1.23035 0.00257196 0
1.26387 0.00504879 0
1.274 0.00658657 0
1.27521 0.00703487 0
1.27392 0.00656009 0
1.27255 0.00544378 0
1.27186 0.00398299 0
1.272 0.0024601 0
1.27273 0.00114368 0
1.27321 0.000294657 0
1.27089 0.000155869 0
1.25925 0.000889276 0
1.22382 0.00241089 0
1.13841 0.00413851 0
0.96643 0.00494843 0
0.673348 0.00392626 0
0.251854 0.00162894 0
-0.253254 -0.00123465 0
0.253053 -1.09708e-05 0
0.677043 -0.0012347 0
0.972207 -0.00229227 0
1.14393 -0.00175431 0
1.22797 3.18581e-05 0
1.2624 0.00207614 0
1.27359 0.00364971 0
1.27569 0.00446706 0
1.27501 0.00455688 0
1.27397 0.00410001 0
1.27335 0.00332606 0
1.27329 0.00246844 0
1.27357 0.00175112 0
1.27336 0.00138276 0
1.2702 0.00153615 0
1.2578 0.00228429 0
1.22217 0.00346784 0
1.13764 0.00454471 0
0.967433 0.00467794 0
0.675583 0.00339133 0
0.253444 0.00133731 0
-0.25446 -0.00109337 0
0.254259 -9.72575e-06 0
0.678081 -0.00109589 0
0.971704 -0.00231086 0
1.14222 -0.00236944 0
1.22601 -0.00127088 0
1.2609 0.000307107 0
1.27281 0.00173105 0
1.27562 0.00267365 0
1.27547 0.00307896 0
1.27474 0.0030472 0
1.27419 0.00274317 0
1.27399 0.00234761 0
1.27394 0.00203615 0
1.27322 0.00196616 0
1.26949 0.00225212 0
1.25667 0.00290902 0
1.22114 0.00375559 0
1.13753 0.00433899 0
0.968691 0.00407822 0
0.677582 0.00277841 0
0.254751 0.00105549 0
-0.25553 -0.000892091 0
0.255331 -7.94124e-06 0
0.67927 -0.000895591 0
0.971776 -0.00203368 0
1.14118 -0.00237762 0
1.22451 -0.00176005 0
1.25954 -0.000607554 0
1.27192 0.000580463 0
1.27524 0.00149455 0
1.27552 0.00203718 0
1.27504 0.00225042 0
1.27459 0.00224326 0
1.27431 0.00214674 0
1.27402 0.00209052 0
1.27296 0.00218639 0
1.26888 0.0025041 0
1.25587 0.00302588 0
1.22059 0.00358143 0
1.1378 0.00382152 0
0.969961 0.0033686 0
0.67926 0.00219031 0
0.255785 0.000807726 0
-0.256407 -0.000687378 0
0.256211 -6.12235e-06 0
0.680384 -0.000690919 0
0.972124 -0.00164917 0
1.1406 -0.00208466 0
1.22341 -0.00177685 0
1.2584 -0.00097234 0
1.27105 -3.68991e-05 0
1.27473 0.000768 0
1.27532 0.00133354 0
1.27507 0.00166422 0
1.27469 0.00182526 0
1.27438 0.00190531 0
1.27394 0.00199423 0
1.27267 0.00216655 0
1.26839 0.00246021 0
1.25535 0.00284273 0
1.22038 0.00317098 0
1.13825 0.00319246 0
0.971114 0.00267807 0
0.68061 0.0016774 0
0.256579 0.000602881 0
-0.257087 -0.000507645 0
0.256894 -4.52348e-06 0
0.681324 -0.000510742 0
0.972559 -0.00126549 0
1.14031 -0.00168702 0
1.22265 -0.00156214 0
1.25752 -0.00102012 0
1.27029 -0.000313697 0
1.2742 0.000352552 0
1.27502 0.000876578 0
1.27492 0.00124182 0
1.27463 0.00148196 0
1.27431 0.00165235 0
1.27379 0.00181111 0
1.2724 0.00200434 0
1.26803 0.00224902 0
1.25505 0.00250933 0
1.22037 0.00267399 0
1.13876 0.00257037 0
0.972094 0.00207032 0
0.681661 0.00125622 0
0.257176 0.000440655 0
-0.257594 -0.000362742 0
0.257404 -3.23343e-06 0
0.682067 -0.000365226 0
0.97298 -0.000933278 0
1.14021 -0.00129376 0
1.22214 -0.00126643 0
1.25685 -0.000910339 0
1.26966 -0.00039213 0
1.27371 0.000136846 0
1.27468 0.000589907 0
1.27471 0.000941092 0
1.27448 0.00120321 0
1.27417 0.00140736 0
1.27362 0.00158805 0
1.27218 0.00177111 0
1.26779 0.00196076 0
1.2549 0.00212407 0
1.22048 0.00217952 0
1.13925 0.00201517 0
0.972894 0.00156735 0
0.682463 0.000924218 0
0.257615 0.000316144 0
-0.257961 -0.000252202 0
0.257774 -2.24877e-06 0
0.682629 -0.000254086 0
0.973342 -0.000667956 0
1.14019 -0.000954434 0
1.22181 -0.00097201 0
1.25636 -0.000741245 0
1.26916 -0.00036796 0
1.27328 4.04374e-05 0
1.27435 0.000414913 0
1.27447 0.000727426 0
1.2743 0.00097823 0
1.274 0.00118199 0
1.27346 0.00135677 0
1.27201 0.00151485 0
1.26765 0.00165351 0
1.25486 0.0017453 0
1.22066 0.00173345 0
1.1397 0.00154921 0
0.973528 0.00116766 0
0.683063 0.000669913 0
0.257933 0.000222789 0
-0.258222 -0.000170987 0
0.258037 -1.52505e-06 0
0.683042 -0.000172363 0
0.973632 -0.000466653 0
1.14022 -0.000683374 0
1.2216 -0.000716269 0
1.25601 -0.000566816 0
1.26878 -0.000300257 0
1.27293 9.44227e-06 0
1.27407 0.000309678 0
1.27424 0.000574329 0
1.27411 0.000796983 0
1.27385 0.000981986 0
1.27332 0.00113672 0
1.27189 0.00126505 0
1.26757 0.00136104 0
1.25489 0.00140327 0
1.22085 0.00135393 0
1.14008 0.00117348 0
0.974022 0.000858773 0
0.683508 0.000479084 0
0.258161 0.000154031 0
-0.258405 -0.000112853 0
0.258221 -1.00686e-06 0
0.683339 -0.000113834 0
0.973854 -0.000319046 0
1.14027 -0.000477169 0
1.22147 -0.000510508 0
1.25577 -0.00041239 0
1.26849 -0.00022216 0
1.27266 1.02715e-05 0
1.27382 0.000246007 0
1.27404 0.0004626 0
1.27395 0.000650802 0
1.27371 0.000809052 0
1.2732 0.000938331 0
1.27181 0.0010377 0
1.26755 0.00110027 0
1.25495 0.00111011 0
1.22103 0.00104312 0
1.1404 0.000878612 0
0.974401 0.000624645 0
0.683834 0.000338016 0
0.258323 0.000104099 0
-0.258532 -7.19992e-05 0
0.258349 -6.42622e-07 0
0.68355 -7.26888e-05 0
0.974019 -0.000213299 0
1.14031 -0.000325352 0
1.22138 -0.000352861 0
1.2556 -0.000286656 0
1.26828 -0.000150099 0
1.27244 2.35166e-05 0
1.27363 0.000205979 0
1.27387 0.00037893 0
1.27381 0.000532564 0
1.2736 0.000662375 0
1.27312 0.000765889 0
1.27176 0.00083978 0
1.26755 0.000877423 0
1.25502 0.000867406 0
1.22121 0.000795132 0
1.14066 0.000651526 0
0.97469 0.000449615 0
0.684072 0.000234903 0
0.258436 6.82642e-05 0
-0.258619 -4.36754e-05 0
0.258437 -3.90062e-07 0
0.683697 -4.41581e-05 0
0.974139 -0.000138764 0
1.14035 -0.000216105 0
1.22133 -0.000236097 0
1.25548 -0.00018969 0
1.26813 -9.06311e-05 0
1.27228 3.89512e-05 0
1.27347 0.000178812 0
1.27373 0.00031441 0
1.27369 0.000436586 0
1.27351 0.00053974 0
1.27306 0.000619845 0
1.27174 0.000672685 0
1.26757 0.000692468 0
1.2551 0.000671285 0
1.22136 0.000600865 0
1.14086 0.000478974 0
0.974909 0.000320088 0
0.684245 0.000160218 0
0.258513 4.28216e-05 0
-0.258678 -2.42523e-05 0
0.258496 -2.16846e-07 0
0.683801 -2.45913e-05 0
0.974226 -8.68645e-05 0
1.14038 -0.000138815 0
1.2213 -0.000151767 0
1.25539 -0.000117808 0
1.26801 -4.50035e-05 0
1.27215 5.18877e-05 0
1.27335 0.000158393 0
1.27362 0.000263226 0
1.27361 0.000358408 0
1.27345 0.000438306 0
1.27302 0.000498481 0
1.27173 0.000534683 0
1.2676 0.000542141 0
1.25518 0.000515547 0
1.22149 0.0004507 0
1.14103 0.000349153 0
0.975075 0.000224996 0
0.68437 0.000106557 0
0.258566 2.49542e-05 0
-0.258718 -1.1069e-05 0
0.258537 -9.92634e-08 0
0.683872 -1.13098e-05 0
0.974287 -5.10932e-05 0
1.14041 -8.48823e-05 0
1.22128 -9.20966e-05 0
1.25534 -6.62035e-05 0
1.26793 -1.19476e-05 0
1.27206 6.07353e-05 0
1.27326 0.000141481 0
1.27354 0.000221637 0
1.27354 0.000294551 0
1.2734 0.000355093 0
1.273 0.00039904 0
1.27173 0.000422542 0
1.26764 0.000421831 0
1.25526 0.00039347 0
1.22159 0.000335789 0
1.14116 0.000252239 0
0.975201 0.000155665 0
0.68446 6.83146e-05 0
0.258602 1.25613e-05 0
-0.258746 -2.22271e-06 0
0.258564 -2.03528e-08 0
0.683922 -2.39682e-06 0
0.974331 -2.66838e-05 0
1.14042 -4.77247e-05 0
1.22126 -5.06547e-05 0
1.25529 -3.02275e-05 0
1.26787 1.07455e-05 0
1.272 6.54786e-05 0
1.2732 0.000126506 0
1.27348 0.000187242 0
1.27349 0.000242295 0
1.27337 0.000287264 0
1.27299 0.00031843 0
1.27174 0.000332523 0
1.26768 0.000326665 0
1.25532 0.00029873 0
1.22169 0.000248557 0
1.14126 0.000180373 0
0.975296 0.00010546 0
0.684525 4.13099e-05 0
0.258625 4.09781e-06 0
-0.258764 3.62737e-06 0
0.258582 3.18399e-08 0
0.683956 3.49846e-06 0
0.974362 -1.02164e-05 0
1.14044 -2.24664e-05 0
1.22125 -2.24151e-05 0
1.25527 -5.8944e-06 0
1.26783 2.54127e-05 0
1.27195 6.6789e-05 0
1.27315 0.000112809 0
1.27344 0.000158475 0
1.27346 0.000199504 0
1.27335 0.000232259 0
1.27298 0.000253627 0
1.27176 0.000260946 0
1.26772 0.000252079 0
1.25538 0.000225799 0
1.22176 0.000182793 0
1.14135 0.000127423 0
0.975369 6.93791e-05 0
0.684571 2.24579e-05 0
0.258639 -1.56148e-06 0
-0.258776 7.41792e-06 0
0.258594 6.56661e-08 0
0.683979 7.31977e-06 0
0.974384 7.3409e-07 0
1.14045 -5.56626e-06 0
1.22125 -3.58447e-06 0
1.25525 9.99398e-06 0
1.2678 3.41514e-05 0
1.27191 6.5543e-05 0
1.27311 0.000100183 0
1.27341 0.000134281 0
1.27344 0.00016448 0
1.27334 0.000187854 0
1.27299 0.000201884 0
1.27178 0.00020447 0
1.26775 0.000194066 0
1.25544 0.000170048 0
1.22183 0.000133535 0
1.14141 8.86804e-05 0
0.975424 4.369e-05 0
0.684605 9.49855e-06 0
0.258648 -5.23036e-06 0
-0.258783 9.79989e-06 0
0.258602 8.69302e-08 0
0.683996 9.7229e-06 0
0.9744 7.87534e-06 0
1.14046 5.51542e-06 0
1.22125 8.63752e-06 0
1.25523 1.9902e-05 0
1.26778 3.86911e-05 0
1.27189 6.25842e-05 0
1.27309 8.86186e-05 0
1.27339 0.000113915 0
1.27343 0.000135864 0
1.27334 0.00015216 0
1.27299 0.000160812 0
1.2718 0.000160205 0
1.26778 0.00014925 0
1.25548 0.000127715 0
1.22188 9.68943e-05 0
1.14147 6.05686e-05 0
0.975467 2.56253e-05 0
0.684629 7.85013e-07 0
0.258653 -7.4937e-06 0
-0.258788 1.12241e-05 0
0.258607 9.96517e-08 0
0.684007 1.11619e-05 0
0.974412 1.24041e-05 0
1.14046 1.25853e-05 0
1.22124 1.62862e-05 0
1.25522 2.5676e-05 0
1.26776 4.03844e-05 0
1.27187 5.86245e-05 0
1.27308 7.81666e-05 0
1.27338 9.68156e-05 0
1.27342 0.000112558 0
1.27334 0.0001236 0
1.273 0.000128397 0
1.27182 0.000125733 0
1.26781 0.000114862 0
1.25552 9.5799e-05 0
1.22192 6.98607e-05 0
1.14151 4.03921e-05 0
0.975501 1.3144e-05 0
0.684647 -4.8773e-06 0
0.258655 -8.76948e-06 0
-0.258792 1.20015e-05 0
0.25861 1.06605e-07 0
0.684015 1.195e-05 0
0.974421 1.51561e-05 0
1.14047 1.69202e-05 0
1.22124 2.08231e-05 0
1.25522 2.86701e-05 0
1.26776 4.02497e-05 0
1.27187 5.4218e-05 0
1.27307 6.88758e-05 0
1.27337 8.25422e-05 0
1.27342 9.36686e-05 0
1.27334 0.000100872 0
1.27302 0.000102974 0
1.27184 9.90721e-05 0
1.26784 8.86737e-05 0
1.25555 7.19411e-05 0
1.22196 5.01262e-05 0
1.14154 2.61324e-05 0
0.975527 4.74788e-06 0
0.68466 -8.35093e-06 0
0.258656 -9.3546e-06 0
-0.258793 1.23462e-05 0
0.258612 1.09698e-07 0
0.684021 1.23026e-05 0
0.974429 1.67122e-05 0
1.14047 1.94166e-05 0
1.22125 2.32868e-05 0
1.25522 2.98597e-05 0
1.26775 3.903e-05 0
1.27186 4.97697e-05 0
1.27306 6.07676e-05 0
1.27337 7.07287e-05 0
1.27342 7.84631e-05 0
1.27335 8.29125e-05 0
1.27303 8.31861e-05 0
1.27186 7.8626e-05 0
1.26787 6.89199e-05 0
1.25558 5.43084e-05 0
1.22199 3.59355e-05 0
1.14157 1.62865e-05 0
0.975549 -6.57887e-07 0
0.684669 -1.02553e-05 0
0.258656 -9.45839e-06 0
-0.258795 1.24046e-05 0
0.258613 1.10236e-07 0
0.684025 1.23672e-05 0
0.974435 1.74747e-05 0
1.14048 2.07e-05 0
1.22125 2.44077e-05 0
1.25522 2.99356e-05 0
1.26775 3.72524e-05 0
1.27186 4.55596e-05 0
1.27306 5.3832e-05 0
1.27337 6.1065e-05 0
1.27343 6.63427e-05 0
1.27336 6.88582e-05 0
1.27304 6.79434e-05 0
1.27188 6.31242e-05 0
1.26789 5.4215e-05 0
1.25561 4.14894e-05 0
1.22202 2.5963e-05 0
1.1416 9.74121e-06 0
0.975567 -3.86872e-06 0
0.684677 -1.10324e-05 0
0.258655 -9.22707e-06 0
-0.258795 1.22761e-05 0
0.258614 1.09106e-07 0
0.684029 1.22437e-05 0
0.97444 1.77199e-05 0
1.14048 2.12034e-05 0
1.22125 2.46935e-05 0
1.25522 2.93788e-05 0
1.26775 3.52802e-05 0
1.27186 4.17688e-05 0
1.27306 4.80324e-05 0
1.27338 5.32842e-05 0
1.27343 5.68162e-05 0
1.27337 5.80132e-05 0
1.27306 5.63761e-05 0
1.27189 5.15664e-05 0
1.26791 4.34843e-05 0
1.25563 3.24063e-05 0
1.22205 1.92151e-05 0
1.14162 5.67801e-06 0
0.975582 -5.45827e-06 0
0.684684 -1.09943e-05 0
0.258655 -8.76135e-06 0
-0.258795 1.20279e-05 0
0.258614 1.06909e-07 0
0.684031 1.19998e-05 0
0.974444 1.76362e-05 0
1.14049 2.12232e-05 0
1.22125 2.44924e-05 0
1.25522 2.85171e-05 0
1.26775 3.33556e-05 0
1.27186 3.85051e-05 0
1.27307 4.3313e-05 0
1.27338 4.71558e-05 0
1.27344 4.94821e-05 0
1.27337 4.98205e-05 0
1.27307 4.77976e-05 0
1.27191 4.31729e-05 0
1.26793 3.59012e-05 0
1.25565 2.62439e-05 0
1.22207 1.49534e-05 0
1.14164 3.50045e-06 0
0.975595 -5.83574e-06 0
0.684689 -1.03582e-05 0
0.258654 -8.12917e-06 0
-0.258795 1.17047e-05 0
0.258614 1.04042e-07 0
0.684033 1.16804e-05 0
0.974448 1.73506e-05 0
1.14049 2.096e-05 0
1.22126 2.40391e-05 0
1.25522 2.75689e-05 0
1.26775 3.16332e-05 0
1.27186 3.58236e-05 0
1.27307 3.9607e-05 0
1.27339 4.24823e-05 0
1.27345 4.40142e-05 0
1.27338 4.38379e-05 0
1.27308 4.16713e-05 0
1.27192 3.73422e-05 0
1.26795 3.08377e-05 0
1.25567 2.23924e-05 0
1.22208 1.26358e-05 0
1.14166 2.77979e-06 0
0.975607 -5.28802e-06 0
0.684695 -9.27208e-06 0
0.258654 -7.37476e-06 0
-0.258794 1.13356e-05 0
0.258613 1.00765e-07 0
0.684035 1.13148e-05 0
0.974452 1.69468e-05 0
1.1405 2.05462e-05 0
1.22126 2.34878e-05 0
1.25523 2.66747e-05 0
1.26776 3.02057e-05 0
1.27187 3.3743e-05 0
1.27308 3.68431e-05 0
1.27339 3.90954e-05 0
1.27345 4.01498e-05 0
1.27339 3.97182e-05 0
1.27309 3.75828e-05 0
1.27194 3.36169e-05 0
1.26796 2.78233e-05 0
1.25569 2.04029e-05 0
1.2221 1.18714e-05 0
1.14167 3.21467e-06 0
0.975618 -4.01034e-06 0
0.6847 -7.83195e-06 0
0.258654 -6.52502e-06 0
-0.258794 1.09389e-05 0
0.258613 9.7241e-08 0
0.684037 1.09214e-05 0
0.974455 1.64784e-05 0
1.1405 2.00668e-05 0
1.22127 2.29359e-05 0
1.25523 2.59193e-05 0
1.26776 2.91223e-05 0
1.27187 3.22585e-05 0
1.27308 3.49508e-05 0
1.2734 3.68545e-05 0
1.27346 3.76801e-05 0
1.2734 3.71928e-05 0
1.2731 3.52178e-05 0
1.27195 3.16561e-05 0
1.26798 2.65137e-05 0
1.2557 1.99537e-05 0
1.22212 1.2387e-05 0
1.14168 4.60151e-06 0
0.975629 -2.12834e-06 0
0.684706 -6.09528e-06 0
0.258654 -5.59396e-06 0
-0.258793 1.05252e-05 0
0.258612 9.35654e-08 0
0.684038 1.05108e-05 0
0.974459 1.59772e-05 0
1.1405 1.95721e-05 0