# vtk DataFile Version 3.0
vtk output
ASCII
DATASET UNSTRUCTURED_GRID
POINTS 1913 double
0.045977 0 0
0.045977 0.0952381 0
0.045977 0.142857 0
0.045977 0.190476 0
0.045977 0.238095 0
0.045977 0.285714 0
0.045977 0.333333 0
0.045977 0.380952 0
0.045977 0.428571 0
0.045977 0.47619 0
0.045977 0.52381 0
0.045977 0.571429 0
0.045977 0.619048 0
0.045977 0.666667 0
0.045977 0.714286 0
0.045977 0.761905 0
0.045977 0.809524 0
0.045977 0.857143 0
0.045977 0.904762 0
0.045977 0.952381 0
0.045977 1 0
0.091954 0 0
0.091954 0.047619 0
0.091954 0.0952381 0
0.091954 0.142857 0
0.091954 0.190476 0
0.091954 0.238095 0
0.091954 0.285714 0
0.091954 0.333333 0
0.091954 0.380952 0
0.091954 0.428571 0
0.091954 0.47619 0
0.091954 0.52381 0
0.091954 0.571429 0
0.091954 0.619048 0
0.091954 0.666667 0
0.091954 0.714286 0
0.091954 0.761905 0
0.091954 0.809524 0
0.091954 0.857143 0
0.091954 0.904762 0
0.091954 0.952381 0
0.091954 1 0
0.137931 0 0
0.137931 0.047619 0
0.137931 0.0952381 0
0.137931 0.142857 0
0.137931 0.190476 0
0.137931 0.238095 0
0.137931 0.285714 0
0.137931 0.333333 0
0.137931 0.380952 0
0.137931 0.428571 0
0.137931 0.47619 0
0.137931 0.52381 0
0.137931 0.571429 0
0.137931 0.619048 0
0.137931 0.666667 0
0.137931 0.714286 0
0.137931 0.761905 0
0.137931 0.809524 0
0.137931 0.857143 0
0.137931 0.904762 0
0.137931 0.952381 0
0.137931 1 0
0.183908 0 0
0.183908 0.047619 0
0.183908 0.0952381 0
0.183908 0.142857 0
0.183908 0.190476 0
0.183908 0.238095 0
0.183908 0.285714 0
0.183908 0.333333 0
0.183908 0.380952 0
0.183908 0.428571 0
0.183908 0.47619 0
0.183908 0.52381 0
0.183908 0.571429 0
0.183908 0.619048 0
0.183908 0.666667 0
0.183908 0.714286 0
0.183908 0.761905 0
0.183908 0.809524 0
0.183908 0.857143 0
0.183908 0.904762 0
0.183908 0.952381 0
0.183908 1 0
0.229885 0 0
0.229885 0.047619 0
0.229885 0.0952381 0
0.229885 0.142857 0
0.229885 0.190476 0
0.229885 0.238095 0
0.229885 0.285714 0
0.229885 0.333333 0
0.229885 0.380952 0
0.229885 0.428571 0
0.229885 0.47619 0
0.229885 0.52381 0
0.229885 0.571429 0
0.229885 0.619048 0
0.229885 0.666667 0
0.229885 0.714286 0
0.229885 0.761905 0
0.229885 0.809524 0
0.229885 0.857143 0
0.229885 0.904762 0
0.229885 0.952381 0
0.229885 1 0
0.275862 0 0
0.275862 0.047619 0
0.275862 0.0952381 0
0.275862 0.142857 0
0.275862 0.190476 0
0.275862 0.238095 0
0.275862 0.285714 0
0.275862 0.333333 0
0.275862 0.380952 0
0.275862 0.428571 0
0.275862 0.47619 0
0.275862 0.52381 0
0.275862 0.571429 0
0.275862 0.619048 0
0.275862 0.666667 0
0.275862 0.714286 0
0.275862 0.761905 0
0.275862 0.809524 0
0.275862 0.857143 0
0.275862 0.904762 0
0.275862 0.952381 0
0.275862 1 0
0.321839 0 0
0.321839 0.047619 0
0.321839 0.0952381 0
0.321839 0.142857 0
0.321839 0.190476 0
0.321839 0.238095 0
0.321839 0.285714 0
0.321839 0.333333 0
0.321839 0.380952 0
0.321839 0.428571 0
0.321839 0.47619 0
0.321839 0.52381 0
0.321839 0.571429 0
0.321839 0.619048 0
0.321839 0.666667 0
0.321839 0.714286 0
0.321839 0.761905 0
0.321839 0.809524 0
0.321839 0.857143 0
0.321839 0.904762 0
0.321839 0.952381 0
0.321839 1 0
0.367816 0 0
0.367816 0.047619 0
0.367816 0.0952381 0
0.367816 0.142857 0
0.367816 0.190476 0
0.367816 0.238095 0
0.367816 0.285714 0
0.367816 0.333333 0
0.367816 0.380952 0
0.367816 0.428571 0
0.367816 0.47619 0
0.367816 0.52381 0
0.367816 0.571429 0
0.367816 0.619048 0
0.367816 0.666667 0
0.367816 0.714286 0
0.367816 0.761905 0
0.367816 0.809524 0
0.367816 0.857143 0
0.367816 0.904762 0
0.367816 0.952381 0
0.367816 1 0
0.413793 0 0
0.413793 0.047619 0
0.413793 0.0952381 0
0.413793 0.142857 0
0.413793 0.190476 0
0.413793 0.238095 0
0.413793 0.285714 0
0.413793 0.333333 0
0.413793 0.380952 0
0.413793 0.428571 0
0.413793 0.47619 0
0.413793 0.52381 0
0.413793 0.571429 0
0.413793 0.619048 0
0.413793 0.666667 0
0.413793 0.714286 0
0.413793 0.761905 0
0.413793 0.809524 0
0.413793 0.857143 0
0.413793 0.904762 0
0.413793 0.952381 0
0.413793 1 0
0.45977 0 0
0.45977 0.047619 0
0.45977 0.0952381 0
0.45977 0.142857 0
0.45977 0.190476 0
0.45977 0.238095 0
0.45977 0.285714 0
0.45977 0.333333 0
0.45977 0.380952 0
0.45977 0.428571 0
0.45977 0.47619 0
0.45977 0.52381 0
0.45977 0.571429 0
0.45977 0.619048 0
0.45977 0.666667 0
0.45977 0.714286 0
0.45977 0.761905 0
0.45977 0.809524 0
0.45977 0.857143 0
0.45977 0.904762 0
0.45977 0.952381 0
0.45977 1 0
0.505747 0 0
0.505747 0.047619 0
0.505747 0.0952381 0
0.505747 0.142857 0
0.505747 0.190476 0
0.505747 0.238095 0
0.505747 0.285714 0
0.505747 0.333333 0
0.505747 0.380952 0
0.505747 0.428571 0
0.505747 0.47619 0
0.505747 0.52381 0
0.505747 0.571429 0
0.505747 0.619048 0
0.505747 0.666667 0
0.505747 0.714286 0
0.505747 0.761905 0
0.505747 0.809524 0
0.505747 0.857143 0
0.505747 0.904762 0
0.505747 0.952381 0
0.505747 1 0
0.551724 0 0
0.551724 0.047619 0
0.551724 0.0952381 0
0.551724 0.142857 0
0.551724 0.190476 0
0.551724 0.238095 0
0.551724 0.285714 0
0.551724 0.333333 0
0.551724 0.380952 0
0.551724 0.428571 0
0.551724 0.47619 0
0.551724 0.52381 0
0.551724 0.571429 0
0.551724 0.619048 0
0.551724 0.666667 0
0.551724 0.714286 0
0.551724 0.761905 0
0.551724 0.809524 0
0.551724 0.857143 0
0.551724 0.904762 0
0.551724 0.952381 0
0.551724 1 0
0.597701 0 0
0.597701 0.047619 0
0.597701 0.0952381 0
0.597701 0.142857 0
0.597701 0.190476 0
0.597701 0.238095 0
0.597701 0.285714 0
0.597701 0.333333 0
0.597701 0.380952 0
0.597701 0.428571 0
0.597701 0.47619 0
0.597701 0.52381 0
0.597701 0.571429 0
0.597701 0.619048 0
0.597701 0.666667 0
0.597701 0.714286 0
0.597701 0.761905 0
0.597701 0.809524 0
0.597701 0.857143 0
0.597701 0.904762 0
0.597701 0.952381 0
0.597701 1 0
0.643678 0 0
0.643678 0.047619 0
0.643678 0.0952381 0
0.643678 0.142857 0
0.643678 0.190476 0
0.643678 0.238095 0
0.643678 0.285714 0
0.643678 0.333333 0
0.643678 0.380952 0
0.643678 0.428571 0
0.643678 0.47619 0
0.643678 0.52381 0
0.643678 0.571429 0
0.643678 0.619048 0
0.643678 0.666667 0
0.643678 0.714286 0
0.643678 0.761905 0
0.643678 0.809524 0
0.643678 0.857143 0
0.643678 0.904762 0
0.643678 0.952381 0
0.643678 1 0
0.689655 0 0
0.689655 0.047619 0
0.689655 0.0952381 0
0.689655 0.142857 0
0.689655 0.190476 0
0.689655 0.238095 0
0.689655 0.285714 0
0.689655 0.333333 0
0.689655 0.380952 0
0.689655 0.428571 0
0.689655 0.47619 0
0.689655 0.52381 0
0.689655 0.571429 0
0.689655 0.619048 0
0.689655 0.666667 0
0.689655 0.714286 0
0.689655 0.761905 0
0.689655 0.809524 0
0.689655 0.857143 0
0.689655 0.904762 0
0.689655 0.952381 0
0.689655 1 0
0.735632 0 0
0.735632 0.047619 0
0.735632 0.0952381 0
0.735632 0.142857 0
0.735632 0.190476 0
0.735632 0.238095 0
0.735632 0.285714 0
0.735632 0.333333 0
0.735632 0.380952 0
0.735632 0.428571 0
0.735632 0.47619 0
0.735632 0.52381 0
0.735632 0.571429 0
0.735632 0.619048 0
0.735632 0.666667 0
0.735632 0.714286 0
0.735632 0.761905 0
0.735632 0.809524 0
0.735632 0.857143 0
0.735632 0.904762 0
0.735632 0.952381 0
0.735632 1 0
0.781609 0 0
0.781609 0.047619 0
0.781609 0.0952381 0
0.781609 0.142857 0
0.781609 0.190476 0
0.781609 0.238095 0
0.781609 0.285714 0
0.781609 0.333333 0
0.781609 0.380952 0
0.781609 0.428571 0
0.781609 0.47619 0
0.781609 0.52381 0
0.781609 0.571429 0
0.781609 0.619048 0
0.781609 0.666667 0
0.781609 0.714286 0
0.781609 0.761905 0
0.781609 0.809524 0
0.781609 0.857143 0
0.781609 0.904762 0
0.781609 0.952381 0
0.781609 1 0
0.827586 0 0
0.827586 0.047619 0
0.827586 0.0952381 0
0.827586 0.142857 0
0.827586 0.190476 0
0.827586 0.238095 0
0.827586 0.285714 0
0.827586 0.333333 0
0.827586 0.380952 0
0.827586 0.428571 0
0.827586 0.47619 0
0.827586 0.52381 0
0.827586 0.571429 0
0.827586 0.619048 0
0.827586 0.666667 0
0.827586 0.714286 0
0.827586 0.761905 0
0.827586 0.809524 0
0.827586 0.857143 0
0.827586 0.904762 0
0.827586 0.952381 0
0.827586 1 0
0.873563 0 0
0.873563 0.047619 0
0.873563 0.0952381 0
0.873563 0.142857 0
0.873563 0.190476 0
0.873563 0.238095 0
0.873563 0.285714 0
0.873563 0.333333 0
0.873563 0.380952 0
0.873563 0.428571 0
0.873563 0.47619 0
0.873563 0.52381 0
0.873563 0.571429 0
0.873563 0.619048 0
0.873563 0.666667 0
0.873563 0.714286 0
0.873563 0.761905 0
0.873563 0.809524 0
0.873563 0.857143 0
0.873563 0.904762 0
0.873563 0.952381 0
0.873563 1 0
0.91954 0 0
0.91954 0.047619 0
0.91954 0.0952381 0
0.91954 0.142857 0
0.91954 0.190476 0
0.91954 0.238095 0
0.91954 0.285714 0
0.91954 0.333333 0
0.91954 0.380952 0
0.91954 0.428571 0
0.91954 0.47619 0
0.91954 0.52381 0
0.91954 0.571429 0
0.91954 0.619048 0
0.91954 0.666667 0
0.91954 0.714286 0
0.91954 0.761905 0
0.91954 0.809524 0
0.91954 0.857143 0
0.91954 0.904762 0
0.91954 0.952381 0
0.91954 1 0
0.965517 0 0
0.965517 0.047619 0
0.965517 0.0952381 0
0.965517 0.142857 0
0.965517 0.190476 0
0.965517 0.238095 0
0.965517 0.285714 0
0.965517 0.333333 0
0.965517 0.380952 0
0.965517 0.428571 0
0.965517 0.47619 0
0.965517 0.52381 0
0.965517 0.571429 0
0.965517 0.619048 0
0.965517 0.666667 0
0.965517 0.714286 0
0.965517 0.761905 0
0.965517 0.809524 0
0.965517 0.857143 0
0.965517 0.904762 0
0.965517 0.952381 0
0.965517 1 0
1.01149 0 0
1.01149 0.047619 0
1.01149 0.0952381 0
1.01149 0.142857 0
1.01149 0.190476 0
1.01149 0.238095 0
1.01149 0.285714 0
1.01149 0.333333 0
1.01149 0.380952 0
1.01149 0.428571 0
1.01149 0.47619 0
1.01149 0.52381 0
1.01149 0.571429 0
1.01149 0.619048 0
1.01149 0.666667 0
1.01149 0.714286 0
1.01149 0.761905 0
1.01149 0.809524 0
1.01149 0.857143 0
1.01149 0.904762 0
1.01149 0.952381 0
1.01149 1 0
1.05747 0 0
1.05747 0.047619 0
1.05747 0.0952381 0
1.05747 0.142857 0
1.05747 0.190476 0
1.05747 0.238095 0
1.05747 0.285714 0
1.05747 0.333333 0
1.05747 0.380952 0
1.05747 0.428571 0
1.05747 0.47619 0
1.05747 0.52381 0
1.05747 0.571429 0
1.05747 0.619048 0
1.05747 0.666667 0
1.05747 0.714286 0
1.05747 0.761905 0
1.05747 0.809524 0
1.05747 0.857143 0
1.05747 0.904762 0
1.05747 0.952381 0
1.05747 1 0
1.10345 0 0
1.10345 0.047619 0
1.10345 0.0952381 0
1.10345 0.142857 0
1.10345 0.190476 0
1.10345 0.238095 0
1.10345 0.285714 0
1.10345 0.333333 0
1.10345 0.380952 0
1.10345 0.428571 0
1.10345 0.47619 0
1.10345 0.52381 0
1.10345 0.571429 0
[...]
POINT_DATA 1913
VECTORS velocity[m/s] double
-0 0.209742 0
0 0.209743 0
0 0.210119 0
0 0.182138 0
0 0.152268 0
0 0.12402 0
0 0.0975617 0
0 0.0725477 0
0 0.048549 0
0 0.0251363 0
0 0.00189099 0
0 -0.0216098 0
0 -0.0458198 0
0 -0.0712597 0
0 -0.098565 0
0 -0.128552 0
0 -0.162314 0
0 -0.201331 0
0 -0.247199 0
0 -0.296793 0
0 -0.30622 0
-0.870172 0.185336 0
0.870175 0.00163466 0
1.07232 0.185337 0
1.0997 0.20941 0
1.10153 0.185501 0
1.09996 0.154587 0
1.09823 0.125323 0
1.09684 0.0983325 0
1.09585 0.0730392 0
1.09528 0.0488686 0
1.09511 0.0253317 0
1.09535 0.00198454 0
1.09602 -0.0216086 0
1.09719 -0.0459114 0
1.09897 -0.0714565 0
1.10154 -0.0989045 0
1.10516 -0.129136 0
1.11021 -0.163382 0
1.1168 -0.203115 0
1.12038 -0.247584 0
1.08157 -0.280521 0
0.7768 -0.23267 0
-0.692817 0.144647 0
0.692819 0.0012958 0
1.04908 0.144649 0
1.12279 0.190298 0
1.13138 0.179569 0
1.12822 0.152636 0
1.1243 0.124242 0
1.12126 0.0975412 0
1.1192 0.0725046 0
1.11801 0.0486085 0
1.11766 0.0253583 0
1.11813 0.00231604 0
1.11949 -0.0209374 0
1.12186 -0.0448401 0
1.12548 -0.0698903 0
1.13074 -0.0966992 0
1.13823 -0.126049 0
1.14858 -0.158806 0
1.15975 -0.194784 0
1.15219 -0.227418 0
1.03538 -0.229364 0
0.552161 -0.14474 0
-0.55442 0.105416 0
0.554421 0.000943697 0
1.00502 0.105418 0
1.13316 0.161929 0
1.15739 0.165342 0
1.15564 0.145784 0
1.15009 0.120411 0
1.14545 0.0950896 0
1.14228 0.0709395 0
1.14047 0.0477786 0
1.13992 0.0252141 0
1.14059 0.00286102 0
1.14258 -0.0196503 0
1.14606 -0.0426997 0
1.15137 -0.0667067 0
1.15908 -0.0921547 0
1.16987 -0.119544 0
1.18333 -0.148919 0
1.19126 -0.177737 0
1.15407 -0.194734 0
0.953685 -0.171785 0
0.41242 -0.0826228 0
-0.453562 0.0736561 0
0.453561 0.000658758 0
0.950462 0.0736577 0
1.12987 0.132184 0
1.17629 0.146584 0
1.18015 0.135145 0
1.17454 0.114125 0
1.16877 0.0911056 0
1.16465 0.0684236 0
1.16226 0.0464189 0
1.16151 0.024898 0
1.16234 0.00357394 0
1.16484 -0.0178461 0
1.16924 -0.0396596 0
1.17595 -0.062177 0
1.18554 -0.0857014 0
1.19824 -0.110344 0
1.21116 -0.135201 0
1.20768 -0.155773 0
1.13192 -0.159053 0
0.867606 -0.12322 0
0.332655 -0.0469171 0
-0.383093 0.0502507 0
0.383091 0.000449068 0
0.893962 0.0502525 0
1.11597 0.105252 0
1.18734 0.126617 0
1.20045 0.122375 0
1.19678 0.106095 0
1.19068 0.085921 0
1.1859 0.0651309 0
1.18305 0.044612 0
1.1821 0.0244212 0
1.18303 0.00439896 0
1.18591 -0.0156552 0
1.19099 -0.0359448 0
1.19867 -0.0566597 0
1.20934 -0.0779056 0
1.22225 -0.099395 0
1.23103 -0.119412 0
1.21086 -0.132363 0
1.09733 -0.126005 0
0.793943 -0.0868926 0
0.287364 -0.0276842 0
-0.335021 0.0340808 0
0.335017 0.000304351 0
0.840866 0.0340828 0
1.09535 0.0827336 0
1.19144 0.107551 0
1.21618 0.10891 0
1.21626 0.0970929 0
1.21076 0.0799392 0
1.20572 0.0612773 0
1.20255 0.0424613 0
1.20144 0.023802 0
1.2024 0.00527653 0
1.20551 -0.0132198 0
1.211 -0.0317975 0
1.2192 -0.0505299 0
1.2301 -0.0693368 0
1.24158 -0.0875865 0
1.24355 -0.103012 0
1.20473 -0.109764 0
1.05958 -0.0977723 0
0.736785 -0.0609928 0
0.260643 -0.0171534 0
-0.302421 0.023391 0
0.302415 0.000208749 0
0.793901 0.0233932 0
1.0714 0.064764 0
1.19014 0.0904294 0
1.2276 0.0957296 0
1.23283 0.0877569 0
1.22879 0.0735294 0
1.2239 0.0570696 0
1.22058 0.0400674 0
1.21934 0.0230581 0
1.22026 0.00614806 0
1.22345 -0.0106778 0
1.2291 -0.0274462 0
1.23736 -0.0441275 0
1.24772 -0.060483 0
1.25649 -0.0756222 0
1.25007 -0.0870007 0
1.19316 -0.0891293 0
1.02408 -0.0745925 0
0.694466 -0.0426945 0
0.24409 -0.0110031 0
-0.28005 0.0164865 0
0.280042 0.000147033 0
0.753965 0.0164889 0
1.04663 0.0507883 0
1.18503 0.0755763 0
1.2353 0.0833711 0
1.24658 0.0785195 0
1.24469 0.0669725 0
1.24032 0.0526734 0
1.23701 0.0375121 0
1.23567 0.0222008 0
1.23652 0.00695878 0
1.23965 -0.00815154 0
1.24521 -0.0230862 0
1.25316 -0.0377302 0
1.26235 -0.0517194 0
1.26748 -0.0639952 0
1.25214 -0.0719687 0
1.17913 -0.0708849 0
0.993287 -0.0558838 0
0.663876 -0.0296009 0
0.233475 -0.0070997 0
-0.264286 0.0120203 0
0.264275 0.000107137 0
0.720856 0.0120234 0
1.0227 0.0400097 0
1.17751 0.0628912 0
1.24 0.0720383 0
1.25774 0.0696153 0
1.2585 0.060443 0
1.25497 0.0481977 0
1.2518 0.0348476 0
1.2504 0.0212312 0
1.25112 0.00765905 0
1.25408 -0.00574224 0
1.25936 -0.0188718 0
1.26668 -0.0315468 0
1.27421 -0.0433107 0
1.27519 -0.0530194 0
1.2511 -0.0582158 0
1.16466 -0.0550556 0
0.96792 -0.0408597 0
0.64216 -0.0200204 0
0.22663 -0.00442522 0
-0.252795 0.00903289 0
0.252782 8.04712e-05 0
0.693843 0.00903756 0
1.00062 0.0316132 0
1.16869 0.0520479 0
1.24234 0.061702 0
1.2666 0.0611129 0
1.27033 0.0540121 0
1.26786 0.04369 0
1.26496 0.0320937 0
1.26351 0.0201381 0
1.26406 0.00820463 0
1.26677 -0.00352883 0
1.27161 -0.0149163 0
1.27805 -0.0257223 0
1.28359 -0.0354288 0
1.28021 -0.0428764 0
1.24806 -0.0458611 0
1.15096 -0.0414907 0
0.947809 -0.0288034 0
0.627112 -0.0128603 0
0.222367 -0.00249209 0
-0.244164 0.0068882 0
0.244146 6.13481e-05 0
0.672054 0.00689555 0
0.980898 0.0248766 0
1.15937 0.0426315 0
1.24292 0.0521964 0
1.27347 0.0529649 0
1.28031 0.0476705 0
1.27907 0.0391472 0
1.27651 0.0292416 0
1.27504 0.018901 0
1.2754 0.00855755 0
1.27777 -0.00156909 0
1.28205 -0.0112966 0
1.28743 -0.0203499 0
1.29079 -0.0281769 0
1.28311 -0.0336613 0
1.24385 -0.034929 0
1.13872 -0.029994 0
0.932425 -0.0191576 0
0.617112 -0.00745118 0
0.219971 -0.00106211 0
-0.237585 0.00519709 0
0.23756 4.62869e-05 0
0.654702 0.00520787 0
0.963764 0.0192406 0
1.15015 0.0342541 0
1.24219 0.0433209 0
1.27859 0.0450783 0
1.28855 0.041372 0
1.28864 0.0345415 0
1.2865 0.0262702 0
1.28504 0.0174974 0
1.28519 0.00868884 0
1.28717 9.83023e-05 0
1.2908 -0.00806131 0
1.29499 -0.0154862 0
1.2961 -0.0216154 0
1.28434 -0.0254235 0
1.23909 -0.025407 0
1.12827 -0.0203888 0
0.921132 -0.0115239 0
0.610953 -0.00339114 0
0.218955 -1.43879e-05 0
-0.232625 0.00375442 0
0.23259 3.34499e-05 0
0.641162 0.00376848 0
0.949277 0.0143504 0
1.1414 0.0266535 0
1.2405 0.0349404 0
1.28217 0.0373952 0
1.29515 0.0350912 0
1.29664 0.0298588 0
1.29498 0.0231689 0
1.29355 0.0159162 0
1.29349 0.00858321 0
1.29506 0.00145174 0
1.29798 -0.00523904 0
1.30092 -0.0111666 0
1.29979 -0.0157844 0
1.28433 -0.0181954 0
1.23426 -0.0172781 0
1.11972 -0.0125353 0
0.913291 -0.00562247 0
0.607703 -0.000429883 0
0.218952 0.000719555 0
-0.229047 0.00248488 0
0.228998 2.21581e-05 0
0.630954 0.00250108 0
0.937407 0.0100548 0
1.13341 0.0197426 0
1.23814 0.027052 0
1.28441 0.0299547 0
1.30021 0.028873 0
1.30311 0.0251344 0
1.30199 0.0199609 0
1.30064 0.0141702 0
1.30039 0.00824402 0
1.30153 0.00248543 0
1.30371 -0.0028449 0
1.30539 -0.00741598 0
1.30212 -0.0107174 0
1.28346 -0.0120062 0
1.22969 -0.0105287 0
1.11305 -0.00631888 0
0.908288 -0.00124034 0
0.606604 0.00160995 0
0.219658 0.00118855 0
-0.226683 0.00139061 0
0.226619 1.24246e-05 0
0.623671 0.00140713 0
0.928063 0.00635451 0
1.12636 0.0135921 0
1.23535 0.0197906 0
1.28546 0.0229094 0
1.30383 0.0228506 0
1.30811 0.0204682 0
1.30759 0.0167148 0
1.30637 0.012303 0
1.30596 0.0076958 0
1.30668 0.00320845 0
1.30813 -0.000883985 0
1.30859 -0.00425342 0
1.30338 -0.00644391 0
1.28204 -0.00687972 0
1.22564 -0.00513679 0
1.10816 -0.00162515 0
0.905547 0.0018128 0
0.607022 0.00287975 0
0.220816 0.00143732 0
-0.225368 0.000502992 0
0.225288 4.52558e-06 0
0.618904 0.000517964 0
0.921085 0.0033187 0
1.12039 0.00835441 0
1.23234 0.0133744 0
1.28553 0.0164894 0
1.30614 0.0172244 0
1.31174 0.0160139 0
1.31186 0.0135384 0
1.31083 0.0103858 0
1.3103 0.00698255 0
1.31064 0.00364368 0
1.3114 0.000648846 0
1.31071 -0.00168889 0
1.30381 -0.0029816 0
1.28037 -0.0028197 0
1.22226 -0.00105179 0
1.10485 0.00168542 0
0.904527 0.00373295 0
0.608426 0.00352678 0
0.222215 0.00151173 0
-0.224902 -0.000153269 0
0.224807 -1.31936e-06 0
0.61621 -0.000141251 0
0.916233 0.00100548 0
1.11555 0.00416897 0
1.22935 0.00801688 0
1.28483 0.0109329 0
1.30732 0.0122115 0
1.31414 0.0119447 0
1.31491 0.0105585 0
1.31413 0.00850611 0
1.31353 0.00616149 0
1.31355 0.00382581 0
1.31366 0.00177114 0
1.31197 0.000283812 0
1.30366 -0.00032361 0
1.27867 0.000206901 0
1.21962 0.00182233 0
1.10289 0.00379028 0
0.904737 0.00473089 0
0.610382 0.00369844 0
0.223685 0.00145826 0
-0.225065 -0.000578497 0
0.224958 -5.11181e-06 0
0.615114 -0.000570095 0
0.913189 -0.000587757 0
1.11185 0.00108917 0
1.22654 0.00384824 0
1.2836 0.00641426 0
1.30759 0.00798888 0
1.31549 0.00841297 0
1.31691 0.00789349 0
1.3164 0.00675045 0
1.3158 0.0052942 0
1.31554 0.00379834 0
1.31511 0.00251491 0
1.31257 0.00169381 0
1.30316 0.00157173 0
1.27712 0.00228008 0
1.21773 0.00363198 0
1.10199 0.00490202 0
0.905744 0.00502562 0
0.612555 0.00353635 0
0.225104 0.00132091 0
-0.225634 -0.00079987 0
0.22552 -7.09156e-06 0
0.615142 -0.000795008 0
0.911581 -0.00153526 0
1.10919 -0.000944788 0
1.22407 0.000873464 0
1.28209 0.00299852 0
1.30719 0.00465124 0
1.316 0.00551623 0
1.31802 0.00562913 0
1.31781 0.00518915 0
1.31725 0.00443758 0
1.31679 0.00360958 0
1.31591 0.00292652 0
1.31269 0.00259564 0
1.30249 0.00278339 0
1.27583 0.00352517 0
1.21652 0.00456444 0
1.10188 0.00525239 0
0.907192 0.00482921 0
0.614705 0.00316717 0
0.226389 0.00113791 0
-0.226415 -0.000862639 0
0.226296 -7.65946e-06 0
0.615867 -0.000860726 0
0.911021 -0.00196427 0
1.10745 -0.00208942 0
1.22203 -0.00102385 0
1.28051 0.000632789 0
1.30636 0.00219695 0
1.3159 0.00328227 0
1.31845 0.00380576 0
1.31855 0.00386618 0
1.31806 0.003637 0
1.31746 0.00330835 0
1.31624 0.00306386 0
1.31252 0.00306596 0
1.30178 0.00342107 0
1.27483 0.00409995 0
1.21586 0.00482779 0
1.1023 0.00506995 0
0.908807 0.00433041 0
0.616674 0.00269503 0
0.227498 0.000939433 0
-0.227256 -0.000817967 0
0.227135 -7.26961e-06 0
0.616943 -0.000818167 0
0.911152 -0.00202374 0
1.10643 -0.0025558 0
1.22044 -0.00204441 0
1.27901 -0.000829436 0
1.30532 0.000539868 0
1.31541 0.00167268 0
1.3184 0.00241721 0
1.31878 0.00279642 0
1.31838 0.00292281 0
1.3177 0.00293995 0
1.31625 0.00299097 0
1.31219 0.00319536 0
1.30113 0.00361208 0
1.27414 0.00417513 0
1.21564 0.00462731 0
1.10302 0.00455914 0
0.910396 0.00368264 0
0.618378 0.00219766 0
0.228414 0.000746912 0
-0.228054 -0.000712676 0
0.227933 -6.3382e-06 0
0.618116 -0.000714152 0
0.911676 -0.00185509 0
1.10594 -0.00256316 0
1.21928 -0.00242317 0
1.27769 -0.00158668 0
1.30424 -0.000461623 0
1.3147 0.000600452 0
1.31805 0.00142006 0
1.31867 0.00196927 0
1.31838 0.00231028 0
1.31766 0.00254313 0
1.31606 0.00277182 0
1.31179 0.00307785 0
1.3006 0.00348568 0
1.27371 0.00391447 0
1.21571 0.0041452 0
1.10388 0.00388586 0
0.911839 0.00299889 0
0.619788 0.00172691 0
0.229145 0.000573609 0
-0.22875 -0.000583309 0
0.228631 -5.19052e-06 0
0.619228 -0.000585372 0
0.912369 -0.00157337 0
1.10582 -0.00230368 0
1.21848 -0.00238488 0
1.27662 -0.00184694 0
1.30322 -0.000970785 0
1.31392 -4.6564e-05 0
1.31753 0.000748037 0
1.31835 0.00135613 0
1.31816 0.00180196 0
1.31745 0.00214828 0
1.31577 0.00246455 0
1.31141 0.00280109 0
1.30019 0.00315953 0
1.2735 0.00345932 0
1.21597 0.00352769 0
1.10474 0.00317172 0
0.913076 0.00235319 0
0.620911 0.00131232 0
0.229707 0.000426094 0
-0.229322 -0.000454444 0
0.229205 -4.04568e-06 0
0.620191 -0.000456609 0
0.913083 -0.00126006 0
1.10591 -0.00192408 0
1.21797 -0.00211531 0
1.27578 -0.00179563 0
1.30234 -0.001144 0
1.31316 -0.000383841 0
1.31695 0.00032677 0
1.31792 0.000919052 0
1.31784 0.00139133 0
1.31715 0.00177699 0
1.31546 0.00211741 0
1.31107 0.00243915 0
1.29991 0.00273049 0
1.27344 0.00292009 0
1.21633 0.00288062 0
1.10554 0.00249594 0
0.914089 0.00178668 0
0.621775 0.000966289 0
0.230127 0.000306037 0
-0.22977 -0.000339953 0
0.229655 -3.02762e-06 0
0.620976 -0.000341932 0
0.913733 -0.000964903 0
1.1061 -0.0015225 0
1.21767 -0.00174979 0
1.27516 -0.00157833 0
1.30161 -0.0011125 0
1.31248 -0.000514448 0
1.31638 8.54399e-05 0
1.31748 0.00061818 0
1.31747 0.00106653 0
1.31683 0.00144266 0
1.31515 0.00176686 0
1.3108 0.00204895 0
1.29974 0.00227088 0
1.27349 0.0023745 0
1.21671 0.002272 0
1.10624 0.00190231 0
0.91489 0.0013159 0
0.622421 0.000689591 0
0.230431 0.00021195 0
-0.230108 -0.000245655 0
0.229995 -2.18856e-06 0
0.621586 -0.000247314 0
0.91428 -0.000712567 0
1.10633 -0.0011552 0
1.21751 -0.001375 0
1.27472 -0.00129685 0
1.30104 -0.000974854 0
1.31191 -0.000520728 0
1.31588 -3.59845e-05 0
1.31705 0.000417071 0
1.31712 0.000813599 0
1.31653 0.00115188 0
1.31489 0.00143763 0
1.31059 0.00166994 0
1.29965 0.00182915 0
1.2736 0.00187084 0
1.21707 0.0017387 0
1.10681 0.00140833 0
0.915503 0.000940972 0
0.62289 0.000476085 0
0.230644 0.00014062 0
-0.230356 -0.000172163 0
0.230244 -1.53431e-06 0
0.622043 -0.000173473 0
0.914716 -0.000510635 0
1.10655 -0.000847494 0
1.21745 -0.00103836 0
1.27441 -0.00101407 0
1.30061 -0.000797594 0
1.31145 -0.000462346 0
1.31545 -8.38129e-05 0
1.31668 0.000285505 0
1.3168 0.000618698 0
1.31626 0.000906045 0
1.31467 0.00114418 0
1.31045 0.00132613 0
1.29961 0.00143341 0
1.27373 0.00143401 0
1.2174 0.0012949 0
1.10727 0.00101418 0
0.91596 0.00065264 0
0.623222 0.000316358 0
0.230788 8.81621e-05 0
-0.230533 -0.000117272 0
0.230422 -1.04544e-06 0
0.622377 -0.000118262 0
0.915049 -0.000356707 0
1.10674 -0.000604842 0
1.21743 -0.000759597 0
1.27421 -0.000763071 0
1.3003 -0.00062067 0
1.31109 -0.000378564 0
1.3151 -9.08724e-05 0
1.31636 0.00020032 0
1.31653 0.000469434 0
1.31604 0.000703051 0
1.31451 0.000892927 0
1.31035 0.00102935 0
1.29962 0.00109639 0
1.27387 0.00107226 0
1.21768 0.000940051 0
1.10763 0.000710213 0
0.916292 0.000437421 0
0.62345 0.000200161 0
0.230881 5.06967e-05 0
-0.230657 -7.76343e-05 0
0.230547 -6.92299e-07 0
0.622615 -7.83583e-05 0
0.915297 -0.00024366 0
1.1069 -0.00042183 0
1.21744 -0.000541405 0
1.27408 -0.000556755 0
1.30007 -0.000464518 0
1.31082 -0.000292557 0
1.31483 -7.85743e-05 0
1.31611 0.000144918 0
1.31631 0.000355435 0
1.31586 0.000538727 0
1.31438 0.000684591 0
1.3103 0.00078275 0
1.29965 0.00082033 0
1.27401 0.000783332 0
1.21791 0.000665323 0
1.1079 0.000482437 0
0.916529 0.000280985 0
0.623602 0.000117864 0
0.230937 2.47345e-05 0
-0.230742 -4.97808e-05 0
0.230633 -4.44077e-07 0
0.622782 -5.02986e-05 0
0.915476 -0.00016302 0
1.10702 -0.000288409 0
1.21747 -0.000377577 0
1.274 -0.000395993 0
1.29991 -0.000336782 0
1.31062 -0.000216101 0
1.31462 -5.96641e-05 0
1.31592 0.000108094 0
1.31614 0.000268424 0
1.31573 0.000407941 0
1.31429 0.000516336 0
1.31027 0.000584037 0
1.2997 0.000601127 0
1.27413 0.000559256 0
1.21809 0.000458309 0
1.1081 0.000316007 0
0.916693 0.000170084 0
0.623699 6.11504e-05 0
0.230968 7.33963e-06 0
-0.230801 -3.06388e-05 0
0.230692 -2.73449e-07 0
0.622898 -3.1004e-05 0
0.915605 -0.000106804 0
1.10711 -0.000193667 0
1.21749 -0.000258403 0
1.27395 -0.000275586 0
1.2998 -0.000237675 0
1.31048 -0.000153679 0
1.31446 -4.08907e-05 0
1.31577 8.26864e-05 0
1.31601 0.000202002 0
1.31563 0.000305378 0
1.31424 0.000383434 0
1.31026 0.000427921 0
1.29974 0.000431513 0
1.27424 0.00038975 0
1.21823 0.000305976 0
1.10825 0.000197217 0
0.916806 9.34237e-05 0
0.623759 2.32463e-05 0
0.230983 -3.84009e-06 0
-0.230841 -1.7721e-05 0
0.230732 -1.58278e-07 0
0.622978 -1.79773e-05 0
0.915696 -6.83134e-05 0
1.10718 -0.000127748 0
1.21751 -0.000173802 0
1.27392 -0.00018809 0
1.29973 -0.000163746 0
1.31038 -0.000105602 0
1.31435 -2.52071e-05 0
1.31566 6.43494e-05 0
1.31592 0.000151322 0
1.31556 0.000226022 0
1.3142 0.000280462 0
1.31026 0.000307912 0
1.29979 0.000303169 0
1.27432 0.000264322 0
1.21835 0.000196322 0
1.10835 0.000114395 0
0.916881 4.18941e-05 0
0.623792 -1.14296e-06 0
0.230986 -1.062e-05 0
-0.230868 -9.13115e-06 0
0.23076 -8.16824e-08 0
0.623034 -9.31189e-06 0
0.91576 -4.23203e-05 0
1.10724 -8.25891e-05 0
1.21753 -0.000114859 0
1.27391 -0.000125975 0
1.29968 -0.000110235 0
1.31031 -7.01323e-05 0
1.31427 -1.33862e-05 0
1.31558 5.0566e-05 0
1.31586 0.000112748 0
1.31552 0.000165412 0
1.31418 0.000202067 0
1.31027 0.000217448 0
1.29984 0.000208007 0
1.2744 0.000173419 0
1.21843 0.000119111 0
1.10843 5.81175e-05 0
0.916929 8.43079e-06 0
0.623808 -1.60227e-05 0
0.230982 -1.43588e-05 0
-0.230887 -3.48486e-06 0
0.230779 -3.13277e-08 0
0.623072 -3.61413e-06 0
0.915806 -2.49388e-05 0
1.10727 -5.19933e-05 0
1.21755 -7.43538e-05 0
1.2739 -8.26473e-05 0
1.29965 -7.2381e-05 0
1.31026 -4.48006e-05 0
1.31422 -5.10155e-06 0
1.31553 3.99357e-05 0
1.31581 8.35574e-05 0
1.31549 0.000119738 0
1.31417 0.000143385 0
1.31029 0.000150521 0
1.29988 0.000138835 0
1.27445 0.000108921 0
1.2185 6.60501e-05 0
1.10848 2.10639e-05 0
0.916959 -1.2281e-05 0
0.623813 -2.43447e-05 0
0.230975 -1.60479e-05 0
-0.2309 1.96397e-07 0
0.230792 1.50546e-09 0
0.6231 1.01808e-07 0
0.915838 -1.33816e-05 0
1.1073 -3.14024e-05 0
1.21757 -4.67679e-05 0
1.27389 -5.27887e-05 0
1.29963 -4.60369e-05 0
1.31023 -2.71213e-05 0
1.31418 4.13667e-07 0
1.31549 3.16965e-05 0
1.31578 6.17027e-05 0
1.31547 8.58451e-05 0
1.31417 0.00010024 0
1.31031 0.000101968 0
1.29991 8.96128e-05 0
1.2745 6.42478e-05 0
1.21855 3.06644e-05 0
1.10852 -2.29012e-06 0
0.916977 -2.41441e-05 0
0.623811 -2.82365e-05 0
0.230966 -1.63931e-05 0
-0.230909 2.58674e-06 0
0.230801 2.2826e-08 0
0.623119 2.51546e-06 0
0.915862 -5.70227e-06 0
1.10732 -1.75666e-05 0
1.21758 -2.80476e-05 0
1.27389 -3.23368e-05 0
1.29962 -2.78642e-05 0
1.31021 -1.49301e-05 0
1.31416 4.004e-06 0
1.31547 2.5427e-05 0
1.31577 4.56298e-05 0
1.31547 6.11777e-05 0
1.31418 6.91737e-05 0
1.31032 6.75343e-05 0
1.29994 5.54656e-05 0
1.27454 3.42385e-05 0
1.21859 8.03618e-06 0
1.10855 -1.60178e-05 0
0.916987 -2.99665e-05 0
0.623806 -2.92005e-05 0
0.230957 -1.58862e-05 0
-0.230916 4.1409e-06 0
0.230808 3.6688e-08 0
0.623133 4.08541e-06 0
0.915879 -5.69834e-07 0
1.10734 -8.22417e-06 0
1.21759 -1.53025e-05 0
1.2739 -1.83048e-05 0
1.29961 -1.53158e-05 0
1.31019 -6.49304e-06 0
1.31414 6.41851e-06 0
1.31546 2.08741e-05 0
1.31576 3.41483e-05 0
1.31546 4.37014e-05 0
1.31418 4.74115e-05 0
1.31034 4.38289e-05 0
1.29997 3.25773e-05 0
1.27457 1.49539e-05 0
1.21862 -5.48741e-06 0
1.10857 -2.30647e-05 0
0.916993 -3.1731e-05 0
0.623799 -2.82763e-05 0
0.230947 -1.48613e-05 0
-0.23092 5.15998e-06 0
0.230813 4.57766e-08 0
0.623143 5.11541e-06 0
0.915893 2.91003e-06 0
1.10735 -1.83039e-06 0
1.2176 -6.51833e-06 0
1.2739 -8.56073e-06 0
1.29961 -6.52308e-06 0
1.31019 -4.98791e-07 0
1.31413 8.24876e-06 0
1.31545 1.78611e-05 0
1.31575 2.63386e-05 0
1.31547 3.18194e-05 0
1.31419 3.27721e-05 0
1.31036 2.82119e-05 0
1.29999 1.80296e-05 0
1.2746 3.44954e-06 0
1.21864 -1.25681e-05 0
1.10858 -2.55229e-05 0
0.916995 -3.08114e-05 0
0.623792 -2.61671e-05 0
0.230939 -1.35389e-05 0
-0.230924 5.83989e-06 0
0.230817 5.18392e-08 0
0.623151 5.80312e-06 0
0.915903 5.32881e-06 0
1.10736 2.6523e-06 0
1.21761 -3.18333e-07 0
1.2739 -1.61836e-06 0
1.29961 -1.57626e-07 0
1.31018 4.00144e-06 0
1.31413 9.92527e-06 0
1.31545 1.62433e-05 0
1.31575 2.1486e-05 0
1.31547 2.42945e-05 0
1.3142 2.35742e-05 0
1.31037 1.86715e-05 0
1.30001 9.63555e-06 0
1.27462 -2.43413e-06 0
1.21866 -1.51109e-05 0
1.1086 -2.48505e-05 0
0.916996 -2.81388e-05 0
0.623785 -2.33354e-05 0
0.230931 -1.20593e-05 0
-0.230927 6.30566e-06 0
0.230819 5.59912e-08 0
0.623157 6.27473e-06 0
0.915911 7.07142e-06 0
1.10737 5.90998e-06 0
1.21761 4.22239e-06 0
1.27391 3.53624e-06 0
1.29961 4.69962e-06 0
1.31018 7.66858e-06 0
1.31413 1.17401e-05 0
1.31545 1.58911e-05 0
1.31576 1.90349e-05 0
1.31548 2.01789e-05 0
1.31421 1.85435e-05 0
1.31039 1.37025e-05 0
1.30003 5.78726e-06 0
1.27464 -4.2513e-06 0
1.21867 -1.44523e-05 0
1.1086 -2.2041e-05 0
0.916997 -2.43261e-05 0
0.62378 -2.00732e-05 0
0.230925 -1.05062e-05 0
-0.230929 6.63521e-06 0
0.230821 5.89279e-08 0
0.623162 6.60887e-06 0
0.915918 8.38346e-06 0
1.10738 8.38819e-06 0
1.21762 7.71355e-06 0
1.27391 7.58023e-06 0
1.29961 8.6677e-06 0
1.31019 1.09465e-05 0
1.31413 1.38773e-05 0
1.31545 1.66847e-05 0
1.31576 1.85551e-05 0
1.31548 1.8757e-05 0
1.31422 1.67314e-05 0
1.3104 1.22009e-05 0
1.30004 5.32657e-06 0
1.27465 -3.09611e-06 0
1.21868 -1.15069e-05 0
1.10861 -1.77503e-05 0
0.916999 -1.97591e-05 0
0.623776 -1.65522e-05 0
0.23092 -8.92444e-06 0
-0.23093 6.87527e-06 0
0.230823 6.10665e-08 0
0.623165 6.85274e-06 0
0.915923 9.4172e-06 0
1.10738 1.03692e-05 0
1.21762 1.05476e-05 0