# vtk DataFile Version 3.0
vtk output
ASCII
DATASET UNSTRUCTURED_GRID
POINTS 1913 double
0.045977 0 0
0.045977 0.0952381 0
0.045977 0.142857 0
0.045977 0.190476 0
0.045977 0.238095 0
0.045977 0.285714 0
0.045977 0.333333 0
0.045977 0.380952 0
0.045977 0.428571 0
0.045977 0.47619 0
0.045977 0.52381 0
0.045977 0.571429 0
0.045977 0.619048 0
0.045977 0.666667 0
0.045977 0.714286 0
0.045977 0.761905 0
0.045977 0.809524 0
0.045977 0.857143 0
0.045977 0.904762 0
0.045977 0.952381 0
0.045977 1 0
0.091954 0 0
0.091954 0.047619 0
0.091954 0.0952381 0
0.091954 0.142857 0
0.091954 0.190476 0
0.091954 0.238095 0
0.091954 0.285714 0
0.091954 0.333333 0
0.091954 0.380952 0
0.091954 0.428571 0
0.091954 0.47619 0
0.091954 0.52381 0
0.091954 0.571429 0
0.091954 0.619048 0
0.091954 0.666667 0
0.091954 0.714286 0
0.091954 0.761905 0
0.091954 0.809524 0
0.091954 0.857143 0
0.091954 0.904762 0
0.091954 0.952381 0
0.091954 1 0
0.137931 0 0
0.137931 0.047619 0
0.137931 0.0952381 0
0.137931 0.142857 0
0.137931 0.190476 0
0.137931 0.238095 0
0.137931 0.285714 0
0.137931 0.333333 0
0.137931 0.380952 0
0.137931 0.428571 0
0.137931 0.47619 0
0.137931 0.52381 0
0.137931 0.571429 0
0.137931 0.619048 0
0.137931 0.666667 0
0.137931 0.714286 0
0.137931 0.761905 0
0.137931 0.809524 0
0.137931 0.857143 0
0.137931 0.904762 0
0.137931 0.952381 0
0.137931 1 0
0.183908 0 0
0.183908 0.047619 0
0.183908 0.0952381 0
0.183908 0.142857 0
0.183908 0.190476 0
0.183908 0.238095 0
0.183908 0.285714 0
0.183908 0.333333 0
0.183908 0.380952 0
0.183908 0.428571 0
0.183908 0.47619 0
0.183908 0.52381 0
0.183908 0.571429 0
0.183908 0.619048 0
0.183908 0.666667 0
0.183908 0.714286 0
0.183908 0.761905 0
0.183908 0.809524 0
0.183908 0.857143 0
0.183908 0.904762 0
0.183908 0.952381 0
0.183908 1 0
0.229885 0 0
0.229885 0.047619 0
0.229885 0.0952381 0
0.229885 0.142857 0
0.229885 0.190476 0
0.229885 0.238095 0
0.229885 0.285714 0
0.229885 0.333333 0
0.229885 0.380952 0
0.229885 0.428571 0
0.229885 0.47619 0
0.229885 0.52381 0
0.229885 0.571429 0
0.229885 0.619048 0
0.229885 0.666667 0
0.229885 0.714286 0
0.229885 0.761905 0
0.229885 0.809524 0
0.229885 0.857143 0
0.229885 0.904762 0
0.229885 0.952381 0
0.229885 1 0
0.275862 0 0
0.275862 0.047619 0
0.275862 0.0952381 0
0.275862 0.142857 0
0.275862 0.190476 0
0.275862 0.238095 0
0.275862 0.285714 0
0.275862 0.333333 0
0.275862 0.380952 0
0.275862 0.428571 0
0.275862 0.47619 0
0.275862 0.52381 0
0.275862 0.571429 0
0.275862 0.619048 0
0.275862 0.666667 0
0.275862 0.714286 0
0.275862 0.761905 0
0.275862 0.809524 0
0.275862 0.857143 0
0.275862 0.904762 0
0.275862 0.952381 0
0.275862 1 0
0.321839 0 0
0.321839 0.047619 0
0.321839 0.0952381 0
0.321839 0.142857 0
0.321839 0.190476 0
0.321839 0.238095 0
0.321839 0.285714 0
0.321839 0.333333 0
0.321839 0.380952 0
0.321839 0.428571 0
0.321839 0.47619 0
0.321839 0.52381 0
0.321839 0.571429 0
0.321839 0.619048 0
0.321839 0.666667 0
0.321839 0.714286 0
0.321839 0.761905 0
0.321839 0.809524 0
0.321839 0.857143 0
0.321839 0.904762 0
0.321839 0.952381 0
0.321839 1 0
0.367816 0 0
0.367816 0.047619 0
0.367816 0.0952381 0
0.367816 0.142857 0
0.367816 0.190476 0
0.367816 0.238095 0
0.367816 0.285714 0
0.367816 0.333333 0
0.367816 0.380952 0
0.367816 0.428571 0
0.367816 0.47619 0
0.367816 0.52381 0
0.367816 0.571429 0
0.367816 0.619048 0
0.367816 0.666667 0
0.367816 0.714286 0
0.367816 0.761905 0
0.367816 0.809524 0
0.367816 0.857143 0
0.367816 0.904762 0
0.367816 0.952381 0
0.367816 1 0
0.413793 0 0
0.413793 0.047619 0
0.413793 0.0952381 0
0.413793 0.142857 0
0.413793 0.190476 0
0.413793 0.238095 0
0.413793 0.285714 0
0.413793 0.333333 0
0.413793 0.380952 0
0.413793 0.428571 0
0.413793 0.47619 0
0.413793 0.52381 0
0.413793 0.571429 0
0.413793 0.619048 0
0.413793 0.666667 0
0.413793 0.714286 0
0.413793 0.761905 0
0.413793 0.809524 0
0.413793 0.857143 0
0.413793 0.904762 0
0.413793 0.952381 0
0.413793 1 0
0.45977 0 0
0.45977 0.047619 0
0.45977 0.0952381 0
0.45977 0.142857 0
0.45977 0.190476 0
0.45977 0.238095 0
0.45977 0.285714 0
0.45977 0.333333 0
0.45977 0.380952 0
0.45977 0.428571 0
0.45977 0.47619 0
0.45977 0.52381 0
0.45977 0.571429 0
0.45977 0.619048 0
0.45977 0.666667 0
0.45977 0.714286 0
0.45977 0.761905 0
0.45977 0.809524 0
0.45977 0.857143 0
0.45977 0.904762 0
0.45977 0.952381 0
0.45977 1 0
0.505747 0 0
0.505747 0.047619 0
0.505747 0.0952381 0
0.505747 0.142857 0
0.505747 0.190476 0
0.505747 0.238095 0
0.505747 0.285714 0
0.505747 0.333333 0
0.505747 0.380952 0
0.505747 0.428571 0
0.505747 0.47619 0
0.505747 0.52381 0
0.505747 0.571429 0
0.505747 0.619048 0
0.505747 0.666667 0
0.505747 0.714286 0
0.505747 0.761905 0
0.505747 0.809524 0
0.505747 0.857143 0
0.505747 0.904762 0
0.505747 0.952381 0
0.505747 1 0
0.551724 0 0
0.551724 0.047619 0
0.551724 0.0952381 0
0.551724 0.142857 0
0.551724 0.190476 0
0.551724 0.238095 0
0.551724 0.285714 0
0.551724 0.333333 0
0.551724 0.380952 0
0.551724 0.428571 0
0.551724 0.47619 0
0.551724 0.52381 0
0.551724 0.571429 0
0.551724 0.619048 0
0.551724 0.666667 0
0.551724 0.714286 0
0.551724 0.761905 0
0.551724 0.809524 0
0.551724 0.857143 0
0.551724 0.904762 0
0.551724 0.952381 0
0.551724 1 0
0.597701 0 0
0.597701 0.047619 0
0.597701 0.0952381 0
0.597701 0.142857 0
0.597701 0.190476 0
0.597701 0.238095 0
0.597701 0.285714 0
0.597701 0.333333 0
0.597701 0.380952 0
0.597701 0.428571 0
0.597701 0.47619 0
0.597701 0.52381 0
0.597701 0.571429 0
0.597701 0.619048 0
0.597701 0.666667 0
0.597701 0.714286 0
0.597701 0.761905 0
0.597701 0.809524 0
0.597701 0.857143 0
0.597701 0.904762 0
0.597701 0.952381 0
0.597701 1 0
0.643678 0 0
0.643678 0.047619 0
0.643678 0.0952381 0
0.643678 0.142857 0
0.643678 0.190476 0
0.643678 0.238095 0
0.643678 0.285714 0
0.643678 0.333333 0
0.643678 0.380952 0
0.643678 0.428571 0
0.643678 0.47619 0
0.643678 0.52381 0
0.643678 0.571429 0
0.643678 0.619048 0
0.643678 0.666667 0
0.643678 0.714286 0
0.643678 0.761905 0
0.643678 0.809524 0
0.643678 0.857143 0
0.643678 0.904762 0
0.643678 0.952381 0
0.643678 1 0
0.689655 0 0
0.689655 0.047619 0
0.689655 0.0952381 0
0.689655 0.142857 0
0.689655 0.190476 0
0.689655 0.238095 0
0.689655 0.285714 0
0.689655 0.333333 0
0.689655 0.380952 0
0.689655 0.428571 0
0.689655 0.47619 0
0.689655 0.52381 0
0.689655 0.571429 0
0.689655 0.619048 0
0.689655 0.666667 0
0.689655 0.714286 0
0.689655 0.761905 0
0.689655 0.809524 0
0.689655 0.857143 0
0.689655 0.904762 0
0.689655 0.952381 0
0.689655 1 0
0.735632 0 0
0.735632 0.047619 0
0.735632 0.0952381 0
0.735632 0.142857 0
0.735632 0.190476 0
0.735632 0.238095 0
0.735632 0.285714 0
0.735632 0.333333 0
0.735632 0.380952 0
0.735632 0.428571 0
0.735632 0.47619 0
0.735632 0.52381 0
0.735632 0.571429 0
0.735632 0.619048 0
0.735632 0.666667 0
0.735632 0.714286 0
0.735632 0.761905 0
0.735632 0.809524 0
0.735632 0.857143 0
0.735632 0.904762 0
0.735632 0.952381 0
0.735632 1 0
0.781609 0 0
0.781609 0.047619 0
0.781609 0.0952381 0
0.781609 0.142857 0
0.781609 0.190476 0
0.781609 0.238095 0
0.781609 0.285714 0
0.781609 0.333333 0
0.781609 0.380952 0
0.781609 0.428571 0
0.781609 0.47619 0
0.781609 0.52381 0
0.781609 0.571429 0
0.781609 0.619048 0
0.781609 0.666667 0
0.781609 0.714286 0
0.781609 0.761905 0
0.781609 0.809524 0
0.781609 0.857143 0
0.781609 0.904762 0
0.781609 0.952381 0
0.781609 1 0
0.827586 0 0
0.827586 0.047619 0
0.827586 0.0952381 0
0.827586 0.142857 0
0.827586 0.190476 0
0.827586 0.238095 0
0.827586 0.285714 0
0.827586 0.333333 0
0.827586 0.380952 0
0.827586 0.428571 0
0.827586 0.47619 0
0.827586 0.52381 0
0.827586 0.571429 0
0.827586 0.619048 0
0.827586 0.666667 0
0.827586 0.714286 0
0.827586 0.761905 0
0.827586 0.809524 0
0.827586 0.857143 0
0.827586 0.904762 0
0.827586 0.952381 0
0.827586 1 0
0.873563 0 0
0.873563 0.047619 0
0.873563 0.0952381 0
0.873563 0.142857 0
0.873563 0.190476 0
0.873563 0.238095 0
0.873563 0.285714 0
0.873563 0.333333 0
0.873563 0.380952 0
0.873563 0.428571 0
0.873563 0.47619 0
0.873563 0.52381 0
0.873563 0.571429 0
0.873563 0.619048 0
0.873563 0.666667 0
0.873563 0.714286 0
0.873563 0.761905 0
0.873563 0.809524 0
0.873563 0.857143 0
0.873563 0.904762 0
0.873563 0.952381 0
0.873563 1 0
0.91954 0 0
0.91954 0.047619 0
0.91954 0.0952381 0
0.91954 0.142857 0
0.91954 0.190476 0
0.91954 0.238095 0
0.91954 0.285714 0
0.91954 0.333333 0
0.91954 0.380952 0
0.91954 0.428571 0
0.91954 0.47619 0
0.91954 0.52381 0
0.91954 0.571429 0
0.91954 0.619048 0
0.91954 0.666667 0
0.91954 0.714286 0
0.91954 0.761905 0
0.91954 0.809524 0
0.91954 0.857143 0
0.91954 0.904762 0
0.91954 0.952381 0
0.91954 1 0
0.965517 0 0
0.965517 0.047619 0
0.965517 0.0952381 0
0.965517 0.142857 0
0.965517 0.190476 0
0.965517 0.238095 0
0.965517 0.285714 0
0.965517 0.333333 0
0.965517 0.380952 0
0.965517 0.428571 0
0.965517 0.47619 0
0.965517 0.52381 0
0.965517 0.571429 0
0.965517 0.619048 0
0.965517 0.666667 0
0.965517 0.714286 0
0.965517 0.761905 0
0.965517 0.809524 0
0.965517 0.857143 0
0.965517 0.904762 0
0.965517 0.952381 0
0.965517 1 0
1.01149 0 0
1.01149 0.047619 0
1.01149 0.0952381 0
1.01149 0.142857 0
1.01149 0.190476 0
1.01149 0.238095 0
1.01149 0.285714 0
1.01149 0.333333 0
1.01149 0.380952 0
1.01149 0.428571 0
1.01149 0.47619 0
1.01149 0.52381 0
1.01149 0.571429 0
1.01149 0.619048 0
1.01149 0.666667 0
1.01149 0.714286 0
1.01149 0.761905 0
1.01149 0.809524 0
1.01149 0.857143 0
1.01149 0.904762 0
1.01149 0.952381 0
1.01149 1 0
1.05747 0 0
1.05747 0.047619 0
1.05747 0.0952381 0
1.05747 0.142857 0
1.05747 0.190476 0
1.05747 0.238095 0
1.05747 0.285714 0
1.05747 0.333333 0
1.05747 0.380952 0
1.05747 0.428571 0
1.05747 0.47619 0
1.05747 0.52381 0
1.05747 0.571429 0
1.05747 0.619048 0
1.05747 0.666667 0
1.05747 0.714286 0
1.05747 0.761905 0
1.05747 0.809524 0
1.05747 0.857143 0
1.05747 0.904762 0
1.05747 0.952381 0
1.05747 1 0
1.10345 0 0
1.10345 0.047619 0
1.10345 0.0952381 0
1.10345 0.142857 0
1.10345 0.190476 0
1.10345 0.238095 0
1.10345 0.285714 0
1.10345 0.333333 0
1.10345 0.380952 0
1.10345 0.428571 0
1.10345 0.47619 0
1.10345 0.52381 0
1.10345 0.571429 0
[...]
POINT_DATA 1913
VECTORS velocity[m/s] double
-0 0.206369 0
0 0.206397 0
0 0.204162 0
0 0.174737 0
0 0.144487 0
0 0.11678 0
0 0.0916402 0
0 0.0685877 0
0 0.0470673 0
0 0.0265349 0
0 0.00646644 0
0 -0.0136614 0
0 -0.0344029 0
0 -0.0563879 0
0 -0.0803803 0
0 -0.107361 0
0 -0.138646 0
0 -0.176043 0
0 -0.221688 0
0 -0.273731 0
0 -0.291372 0
-0.86976 0.182013 0
0.869756 0.00160536 0
1.0712 0.18204 0
1.0975 0.202898 0
1.09836 0.177143 0
1.09598 0.145741 0
1.09356 0.117072 0
1.09161 0.0915325 0
1.09017 0.0683729 0
1.08925 0.0468757 0
1.08881 0.026429 0
1.08886 0.0064818 0
1.08942 -0.0134985 0
1.09057 -0.0340687 0
1.09244 -0.0558592 0
1.09523 -0.0796434 0
1.09927 -0.106444 0
1.10504 -0.137696 0
1.11286 -0.175251 0
1.11888 -0.219425 0
1.08552 -0.256847 0
0.787057 -0.221734 0
-0.695641 0.141307 0
0.695611 0.00126603 0
1.05111 0.141334 0
1.12242 0.18278 0
1.12873 0.16947 0
1.1237 0.141834 0
1.11827 0.114143 0
1.11401 0.0891451 0
1.11097 0.0665508 0
1.10903 0.0456573 0
1.10811 0.0258338 0
1.10819 0.00653514 0
1.10933 -0.0127449 0
1.11165 -0.0325202 0
1.11545 -0.0533617 0
1.12115 -0.0759588 0
1.12949 -0.101195 0
1.14135 -0.130137 0
1.15556 -0.163242 0
1.15506 -0.196009 0
1.05166 -0.205411 0
0.573017 -0.136883 0
-0.560496 0.101968 0
0.560441 0.000913043 0
1.01113 0.101999 0
1.13531 0.152838 0
1.15546 0.15252 0
1.15048 0.13191 0
1.14245 0.107445 0
1.13587 0.084262 0
1.13118 0.0630508 0
1.12821 0.0433865 0
1.12679 0.0247255 0
1.12685 0.00658283 0
1.12846 -0.0114784 0
1.13182 -0.0298839 0
1.13731 -0.0490848 0
1.14556 -0.0695915 0
1.15748 -0.091962 0
1.17336 -0.116509 0
1.18724 -0.141799 0
1.16419 -0.159731 0
0.985544 -0.147087 0
0.440903 -0.0757734 0
-0.462994 0.0696135 0
0.462908 0.000622898 0
0.962094 0.0696593 0
1.13567 0.120406 0
1.1754 0.129528 0
1.17415 0.116668 0
1.16487 0.0970012 0
1.15639 0.0768719 0
1.15021 0.0579001 0
1.14627 0.0400919 0
1.14435 0.0231006 0
1.14433 0.00656649 0
1.14628 -0.00983266 0
1.1504 -0.0263937 0
1.15715 -0.0434021 0
1.16721 -0.0611247 0
1.18123 -0.0797027 0
1.19782 -0.0986513 0
1.20461 -0.115167 0
1.15203 -0.120349 0
0.916739 -0.0971074 0
0.367792 -0.0395206 0
-0.39645 0.0448463 0
0.39632 0.000401172 0
0.913143 0.0449109 0
1.1269 0.0893865 0
1.18786 0.103637 0
1.19318 0.0976842 0
1.18435 0.0835092 0
1.17475 0.0673369 0
1.16745 0.0513262 0
1.16272 0.0359101 0
1.16035 0.0210062 0
1.16021 0.006435 0
1.16231 -0.00797435 0
1.16687 -0.0223633 0
1.17431 -0.0368301 0
1.18519 -0.0513827 0
1.19957 -0.0657699 0
1.21382 -0.078929 0
1.20966 -0.0875822 0
1.12964 -0.0842371 0
0.861188 -0.0594385 0
0.329685 -0.0193509 0
-0.353606 0.0268181 0
0.353414 0.000239974 0
0.870247 0.0268939 0
1.11319 0.0619554 0
1.19366 0.0776933 0
1.20691 0.0770849 0
1.20001 0.0682738 0
1.19025 0.0564294 0
1.18238 0.0437916 0
1.17715 0.0311043 0
1.17447 0.018553 0
1.17416 0.0061607 0
1.17625 -0.00607646 0
1.18088 -0.0181396 0
1.1884 -0.0299472 0
1.19913 -0.0412825 0
1.21232 -0.0516091 0
1.22222 -0.0596078 0
1.20648 -0.0622975 0
1.10574 -0.0545975 0
0.822533 -0.0332688 0
0.311052 -0.00835153 0
-0.328015 0.0144413 0
0.32775 0.000129362 0
0.836442 0.0145129 0
1.09804 0.0395205 0
1.19429 0.0541986 0
1.21546 0.057145 0
1.21149 0.0529093 0
1.2025 0.0451785 0
1.19467 0.035922 0
1.18932 0.0260315 0
1.18647 0.0159041 0
1.18602 0.00574648 0
1.18794 -0.00429133 0
1.19233 -0.0140487 0
1.19939 -0.0232988 0
1.20914 -0.0316672 0
1.22009 -0.038475 0
1.22487 -0.0424364 0
1.19909 -0.0413043 0
1.0852 -0.032404 0
0.798526 -0.0163656 0
0.303039 -0.0025278 0
-0.314268 0.00659028 0
0.313934 5.91797e-05 0
0.812345 0.00664498 0
1.08392 0.0227558 0
1.19149 0.0349399 0
1.2196 0.0397394 0
1.219 0.0388881 0
1.21148 0.0345903 0
1.20427 0.0283553 0
1.19914 0.0210671 0
1.19632 0.0132433 0
1.19576 0.00522173 0
1.1974 -0.00273088 0
1.2013 -0.0103499 0
1.20752 -0.0173135 0
1.21576 -0.0231696 0
1.22396 -0.0272279 0
1.22382 -0.0284243 0
1.19055 -0.0253507 0
1.06976 -0.0171732 0
0.785215 -0.0063002 0
0.300649 0.000333854 0
-0.308034 0.00210433 0
0.307648 1.90381e-05 0
0.796837 0.00213754 0
1.0722 0.0114446 0
1.1869 0.02065 0
1.22047 0.0259293 0
1.22319 0.027182 0
1.21755 0.0254021 0
1.21135 0.0215951 0
1.20674 0.0165253 0
1.20411 0.0107365 0
1.20348 0.00463106 0
1.2048 -0.00145778 0
1.20807 -0.00720771 0
1.21322 -0.0122556 0
1.21973 -0.0161429 0
1.22517 -0.0182605 0
1.2209 -0.0178402 0
1.1827 -0.0141924 0
1.05931 -0.00761145 0
0.778859 -0.000889737 0
0.30102 0.00152418 0
-0.306092 -0.000118557 0
0.305674 -8.92352e-07 0
0.787899 -0.000104087 0
1.06336 0.00462786 0
1.18185 0.0110437 0
1.2193 0.0158943 0
1.22496 0.0181493 0
1.22127 0.0179743 0
1.21628 0.0159318 0
1.21237 0.0126096 0
1.21005 0.00850423 0
1.2094 0.00402147 0
1.2104 -0.000488033 0
1.21299 -0.0046884 0
1.21701 -0.00822099 0
1.22182 -0.0106716 0
1.22481 -0.0115571 0
1.21742 -0.0103923 0
1.17639 -0.00698996 0
1.05287 -0.00216758 0
0.776576 0.001615 0
0.302539 0.00182663 0
-0.306276 -0.000989861 0
0.305843 -8.73776e-06 0
0.783376 -0.000987979 0
1.05721 0.0010194 0
1.17721 0.00519054 0
1.21717 0.00916623 0
1.22517 0.0116433 0
1.22328 0.0123252 0
1.21954 0.0114434 0
1.21637 0.00940262 0
1.21442 0.00661054 0
1.2138 0.00343261 0
1.21449 0.000198442 0
1.21644 -0.00277669 0
1.21942 -0.00517019 0
1.22271 -0.00663856 0
1.22373 -0.00683124 0
1.21418 -0.00548563 0
1.17178 -0.00270313 0
1.04927 0.000578849 0
0.776418 0.00247594 0
0.304349 0.00170966 0
-0.307291 -0.00115972 0
0.306856 -1.02992e-05 0
0.781484 -0.00116438 0
1.05323 -0.000588939 0
1.17342 0.00196796 0
1.21482 0.00497412 0
1.22455 0.00722679 0
1.22417 0.00824476 0
1.22155 0.00804942 0
1.21911 0.00688834 0
1.21753 0.00506852 0
1.21696 0.00289205 0
1.21741 0.00064385 0
1.21879 -0.0014025 0
1.22088 -0.00297689 0
1.22294 -0.003813 0
1.22247 -0.00367511 0
1.21154 -0.00245157 0
1.16866 -0.000369775 0
1.04748 0.00172612 0
0.777203 0.00251329 0
0.306045 0.00143586 0
-0.308467 -0.00102901 0
0.308036 -9.15908e-06 0
0.780972 -0.00103592 0
1.0508 -0.00110805 0
1.17056 0.000386111 0
1.21269 0.00253134 0
1.22361 0.00437408 0
1.2244 0.00542003 0
1.22271 0.00558064 0
1.22091 0.00498721 0
1.21967 0.00385417 0
1.21917 0.00241475 0
1.21943 0.000899432 0
1.22036 -0.000468801 0
1.22173 -0.00147638 0
1.22285 -0.00192771 0
1.22133 -0.00167475 0
1.20958 -0.000694456 0
1.16668 0.000760992 0
1.04676 0.00201992 0
0.778286 0.00220644 0
0.307474 0.00113765 0
-0.309515 -0.000810612 0
0.309091 -7.22369e-06 0
0.781084 -0.000817399 0
1.0494 -0.00111858 0
1.16853 -0.000276836 0
1.21095 0.00119432 0
1.22265 0.00260468 0
1.22429 0.00352957 0
1.22332 0.00383983 0
1.22204 0.0035908 0
1.2211 0.00292256 0
1.22068 0.00200532 0
1.22079 0.00101566 0
1.22137 0.000126195 0
1.22221 -0.000502004 0
1.22265 -0.000731432 0
1.22043 -0.000474874 0
1.20821 0.000246867 0
1.16551 0.00120802 0
1.04662 0.0019133 0
0.77936 0.00180519 0
0.308614 0.000871664 0
-0.310353 -0.000599238 0
0.309935 -5.34378e-06 0
0.781416 -0.000604921 0
1.04863 -0.000940293 0
1.16715 -0.000477839 0
1.20963 0.000506813 0
1.22179 0.00154173 0
1.22403 0.00229642 0
1.2236 0.00264112 0
1.22273 0.00258744 0
1.22203 0.00222133 0
1.22167 0.00166123 0
1.22169 0.00103644 0
1.22202 0.000474862 0
1.22247 9.32927e-05 0
1.22244 -1.49978e-05 0
1.21977 0.000198164 0
1.20732 0.000695859 0
1.16486 0.0012971 0
1.04677 0.00165449 0
0.780302 0.00142229 0
0.309497 0.000654907 0
-0.310986 -0.000426522 0
0.310574 -3.80524e-06 0
0.78178 -0.000430906 0
1.04823 -0.000725058 0
1.16624 -0.000474239 0
1.20867 0.000177654 0
1.2211 0.000918591 0
1.22374 0.00150647 0
1.2237 0.00182942 0
1.22312 0.00187739 0
1.22261 0.00169985 0
1.22232 0.00137594 0
1.22227 0.000996682 0
1.22242 0.00065339 0
1.22262 0.000427956 0
1.22228 0.000381791 0
1.21933 0.000539643 0
1.20678 0.000863259 0
1.16456 0.00121707 0
1.04703 0.00136549 0
0.781082 0.00109781 0
0.310168 0.000486339 0
-0.311453 -0.00029577 0
0.311044 -2.63956e-06 0
0.782103 -0.000299004 0
1.04802 -0.000532515 0
1.16565 -0.000396341 0
1.20799 3.54504e-05 0
1.22057 0.000559883 0
1.22346 0.00100608 0
1.22369 0.00128528 0
1.22333 0.00137917 0
1.22296 0.00131417 0
1.22272 0.00114122 0
1.22264 0.000922243 0
1.22268 0.000720329 0
1.2227 0.000591229 0
1.22216 0.000574361 0
1.21906 0.000681249 0
1.20648 0.000878789 0
1.16445 0.00106992 0
1.04733 0.00109848 0
0.781711 0.00083787 0
0.310676 0.000358433 0
-0.311792 -0.000200346 0
0.311386 -1.78846e-06 0
0.782366 -0.000202675 0
1.04793 -0.00037859 0
1.16527 -0.000303246 0
1.20752 -1.44826e-05 0
1.22018 0.000356156 0
1.22323 0.000690577 0
1.22363 0.000921822 0
1.22343 0.00103032 0
1.22316 0.00102875 0
1.22297 0.000948747 0
1.22287 0.000831127 0
1.22284 0.000718208 0
1.22275 0.000646944 0
1.2221 0.00064205 0
1.2189 0.000708027 0
1.20633 0.000818779 0
1.16446 0.000906962 0
1.04762 0.000870769 0
0.782211 0.000635362 0
0.311059 0.000262553 0
-0.312038 -0.000131847 0
0.311634 -1.1774e-06 0
0.782572 -0.000133503 0
1.04789 -0.00026175 0
1.16503 -0.000218196 0
1.2072 -2.18866e-05 0
1.21989 0.000241553 0
1.22305 0.000491304 0
1.22357 0.000678337 0
1.22347 0.000785019 0
1.22328 0.000816247 0
1.22312 0.000790918 0
1.22301 0.000735133 0
1.22295 0.000676482 0
1.22279 0.000638842 0
1.22207 0.000637344 0
1.21883 0.000673018 0
1.20628 0.000726429 0
1.16453 0.000751921 0
1.04788 0.000684028 0
0.782607 0.000479688 0
0.311349 0.000191056 0
-0.312217 -8.30059e-05 0
0.311814 -7.41671e-07 0
0.782731 -8.41735e-05 0
1.04788 -0.000175268 0
1.16487 -0.000148108 0
1.20698 -1.18177e-05 0
1.21969 0.000177392 0
1.2229 0.000364327 0
1.2235 0.000513673 0
1.22347 0.000610766 0
1.22334 0.000656364 0
1.22321 0.000661224 0
1.22311 0.000641502 0
1.22302 0.000614677 0
1.22283 0.000595777 0
1.22207 0.00059382 0
1.21881 0.000608281 0
1.20629 0.000625237 0
1.16464 0.000614299 0
1.04811 0.000533978 0
0.78292 0.000360711 0
0.311568 0.000137834 0
-0.312347 -4.82886e-05 0
0.311946 -4.31928e-07 0
0.782853 -4.91053e-05 0
1.04789 -0.000112087 0
1.16477 -9.32686e-05 0
1.20683 3.61474e-06 0
1.21954 0.000141317 0
1.22279 0.000282029 0
1.22344 0.000400507 0
1.22346 0.000485061 0
1.22337 0.000534422 0
1.22326 0.000554294 0
1.22317 0.000554303 0
1.22307 0.000545176 0
1.22287 0.000536095 0
1.22209 0.000532256 0
1.21883 0.000532566 0
1.20634 0.000527324 0
1.16475 0.000496649 0
1.04831 0.000414741 0
0.783169 0.000269982 0
0.311735 9.8234e-05 0
-0.312443 -2.3693e-05 0
0.312042 -2.1248e-07 0
0.782947 -2.42585e-05 0
1.04791 -6.63242e-05 0
1.16471 -5.17027e-05 0
1.20673 1.88796e-05 0
1.21944 0.000120549 0
1.22271 0.000227255 0
1.22339 0.000320967 0
1.22345 0.000392579 0
1.22338 0.000439966 0
1.22329 0.000465793 0
1.22321 0.000475505 0
1.22311 0.000475436 0
1.2229 0.000470996 0
1.22212 0.000465035 0
1.21887 0.000456368 0
1.2064 0.000438389 0
1.16486 0.000398333 0
1.04849 0.000320609 0
0.783368 0.000200856 0
0.311863 6.87797e-05 0
-0.312513 -6.37645e-06 0
0.312112 -5.7966e-08 0
0.783019 -6.76332e-06 0
1.04792 -3.3458e-05 0
1.16468 -2.09614e-05 0
1.20667 3.17128e-05 0
1.21937 0.000107871 0
1.22265 0.000189435 0
1.22335 0.000263484 0
1.22344 0.000322999 0
1.22339 0.000365625 0
1.22332 0.000392262 0
1.22324 0.000405755 0
1.22315 0.000409647 0
1.22294 0.000406971 0
1.22216 0.000399172 0
1.21892 0.000385178 0
1.20647 0.000360588 0
1.16496 0.000317399 0
1.04863 0.000246621 0
0.783527 0.000148227 0
0.311961 4.68978e-05 0
-0.312565 5.67849e-06 0
0.312164 4.96135e-08 0
0.783075 5.41678e-06 0
1.04794 -1.01183e-05 0
1.16466 1.23389e-06 0
1.20663 4.14368e-05 0
1.21932 9.92761e-05 0
1.22261 0.000162107 0
1.22333 0.000220614 0
1.22343 0.000269406 0
1.22339 0.000306211 0
1.22333 0.000330954 0
1.22327 0.000344912 0
1.22318 0.000349902 0
1.22298 0.000347497 0
1.22221 0.000338329 0
1.21897 0.00032151 0
1.20654 0.000294178 0
1.16506 0.000251485 0
1.04876 0.000188672 0
0.783655 0.000108205 0
0.312036 3.06821e-05 0
-0.312603 1.39128e-05 0
0.312203 1.23114e-07 0
0.78312 1.37371e-05 0
1.04796 6.18839e-06 0
1.16465 1.68113e-05 0
1.2066 4.81159e-05 0
1.21929 9.25983e-05 0
1.22258 0.000141345 0
1.22331 0.000187584 0
1.22342 0.000227175 0
1.2234 0.000258065 0
1.22335 0.000279683 0
1.22329 0.000292398 0
1.22321 0.000296997 0
1.22302 0.000294183 0
1.22225 0.000284136 0
1.21903 0.000266163 0
1.20661 0.000238459 0
1.16515 0.000198243 0
1.04887 0.000143434 0
0.783759 7.78318e-05 0
0.312095 1.87167e-05 0
-0.312632 1.93656e-05 0
0.312232 1.71804e-07 0
0.783155 1.92487e-05 0
1.04798 1.73099e-05 0
1.16465 2.73377e-05 0
1.20658 5.21321e-05 0
1.21927 8.67245e-05 0
1.22256 0.000124783 0
1.2233 0.000161339 0
1.22342 0.0001932 0
1.22341 0.000218581 0
1.22336 0.000236701 0
1.22331 0.000247432 0
1.22324 0.000250968 0
1.22305 0.000247519 0
1.2223 0.000237031 0
1.21908 0.000218987 0
1.20668 0.0001923 0
1.16523 0.000155527 0
1.04896 0.000108238 0
0.783845 5.48509e-05 0
0.312141 9.94587e-06 0
-0.312654 2.27942e-05 0
0.312254 2.0244e-07 0
0.783184 2.27187e-05 0
1.048 2.46217e-05 0
1.16465 3.40609e-05 0
1.20658 5.39726e-05 0
1.21926 8.11319e-05 0
1.22256 0.000111006 0
1.22329 0.000139913 0
1.22342 0.000165378 0
1.22341 0.000185886 0
1.22338 0.000200605 0
1.22334 0.000209159 0
1.22327 0.000211429 0
1.22309 0.000207357 0
1.22234 0.000196788 0
1.21914 0.00017935 0
1.20674 0.000154437 0
1.16531 0.000121456 0
1.04904 8.09589e-05 0
0.783915 3.75404e-05 0
0.312178 3.57995e-06 0
-0.31267 2.4756e-05 0
0.31227 2.19993e-07 0
0.783208 2.47131e-05 0
1.04801 2.9152e-05 0
1.16466 3.79627e-05 0
1.20658 5.41252e-05 0
1.21926 7.56197e-05 0
1.22255 9.91767e-05 0
1.22329 0.000122036 0
1.22343 0.000142269 0
1.22343 0.000158608 0
1.2234 0.000170255 0
1.22336 0.000176739 0
1.2233 0.000177788 0
1.22313 0.000173219 0
1.22238 0.000162844 0
1.21919 0.000146411 0
1.2068 0.00012363 0
1.16537 9.44282e-05 0
1.0491 5.99101e-05 0
0.783973 2.45819e-05 0
0.312207 -9.73646e-07 0
-0.312683 2.56649e-05 0
0.312283 2.28151e-07 0
0.783228 2.56512e-05 0
1.04803 3.16705e-05 0
1.16466 3.98071e-05 0
1.20658 5.30297e-05 0
1.21926 7.01526e-05 0
1.22256 8.87987e-05 0
1.2233 0.000106874 0
1.22343 0.000122865 0
1.22344 0.000135722 0
1.22342 0.000144724 0
1.22339 0.000149384 0
1.22333 0.000149377 0
1.22316 0.000144475 0
1.22242 0.000134496 0
1.21923 0.000119279 0
1.20685 9.87365e-05 0
1.16543 7.31048e-05 0
1.04916 4.37579e-05 0
0.784022 1.49658e-05 0
0.31223 -4.16031e-06 0
-0.312693 2.58283e-05 0
0.312293 2.29659e-07 0
0.783245 2.58436e-05 0
1.04804 3.2752e-05 0
1.16467 4.01823e-05 0
1.20659 5.10583e-05 0
1.21926 6.47715e-05 0
1.22256 7.95782e-05 0
1.22331 9.38695e-05 0
1.22345 0.000106448 0
1.22345 0.000116451 0
1.22344 0.000123248 0
1.22341 0.000126383 0
1.22336 0.00012553 0
1.22319 0.000120459 0
1.22246 0.000111012 0
1.21928 9.70972e-05 0
1.2069 7.87529e-05 0
1.16548 5.63812e-05 0
1.04921 3.14509e-05 0
0.784064 7.91838e-06 0
0.312249 -6.31522e-06 0
-0.3127 2.54736e-05 0
0.3123 2.26542e-07 0
0.78326 2.55179e-05 0
1.04806 3.28227e-05 0
1.16469 3.95349e-05 0
1.2066 4.85124e-05 0
1.21927 5.95434e-05 0
1.22257 7.1336e-05 0
1.22332 8.26367e-05 0
1.22346 9.24909e-05 0
1.22347 0.00010019 0
1.22345 0.000105198 0
1.22343 0.000107108 0
1.22339 0.00010562 0
1.22322 0.000100525 0
1.2225 9.16942e-05 0
1.21931 7.90881e-05 0
1.20694 6.28161e-05 0
1.16553 4.33561e-05 0
1.04926 2.21626e-05 0
0.784099 2.84666e-06 0
0.312265 -7.69073e-06 0
-0.312707 2.4766e-05 0
0.312307 2.20276e-07 0
0.783273 2.48381e-05 0
1.04807 3.21954e-05 0
1.1647 3.81988e-05 0
1.20661 4.5626e-05 0
1.21928 5.4535e-05 0
1.22258 6.39565e-05 0
1.22333 7.28986e-05 0
1.22347 8.05935e-05 0
1.22349 8.64609e-05 0
1.22347 9.00499e-05 0
1.22345 9.10101e-05 0
1.22341 8.90798e-05 0
1.22325 8.40794e-05 0
1.22253 7.59104e-05 0
1.21935 6.4568e-05 0
1.20698 5.01992e-05 0
1.16557 3.32998e-05 0
1.0493 1.52454e-05 0
0.784131 -7.03241e-07 0
0.312279 -8.47677e-06 0
-0.312712 2.38228e-05 0
0.312312 2.11907e-07 0
0.783286 2.39195e-05 0
1.04809 3.10963e-05 0
1.16471 3.64189e-05 0
1.20662 4.25747e-05 0
1.21929 4.98004e-05 0
1.22259 5.7357e-05 0
1.22334 6.44467e-05 0
1.22348 7.04451e-05 0
1.2235 7.48765e-05 0
1.22349 7.73659e-05 0
1.22348 7.76178e-05 0
1.22344 7.54109e-05 0
1.22328 7.05969e-05 0
1.22256 6.31041e-05 0
1.21939 5.2951e-05 0
1.20702 4.02988e-05 0
1.16561 2.56259e-05 0
1.04933 1.01931e-05 0
0.784158 -3.07849e-06 0
0.31229 -8.81622e-06 0
-0.312717 2.27247e-05 0
0.312317 2.02154e-07 0
0.783298 2.28407e-05 0
1.0481 2.96857e-05 0
1.16472 3.43707e-05 0
1.20663 3.94845e-05 0
1.2193 4.53764e-05 0
1.2226 5.14715e-05 0
1.22335 5.71158e-05 0
1.2235 6.17961e-05 0
1.22352 6.51208e-05 0
1.22351 6.67799e-05 0
1.2235 6.65277e-05 0
1.22346 6.41809e-05 0
1.22331 5.96204e-05 0
1.22259 5.27968e-05 0
1.21942 4.37428e-05 0
1.20705 3.26192e-05 0
1.16564 1.98655e-05 0
1.04936 6.61113e-06 0
0.784182 -4.54412e-06 0
0.3123 -8.8163e-06 0
-0.312721 2.15246e-05 0
0.312322 1.9149e-07 0
0.783309 2.16523e-05 0
1.04811 2.80741e-05 0
1.16474 3.21763e-05 0
1.20664 3.64411e-05 0
1.21931 4.12826e-05 0
1.22262 4.6241e-05 0
1.22337 5.07697e-05 0
1.22351 5.44412e-05 0
1.22353 5.69314e-05 0
1.22353 5.79843e-05 0
1.22352 5.73971e-05 0
1.22348 5.50202e-05 0
1.22333 5.07599e-05 0
1.22262 4.45838e-05 0
1.21944 3.65327e-05 0
1.20708 2.67569e-05 0
1.16567 1.56467e-05 0
1.04939 4.19338e-06 0
0.784204 -5.30185e-06 0
0.31231 -8.55718e-06 0
-0.312725 2.02544e-05 0
0.312326 1.802e-07 0
0.783319 2.03839e-05 0
1.04813 2.63347e-05 0
1.16475 2.99169e-05 0
1.20665 3.34986e-05 0
1.21933 3.75231e-05 0
1.22263 4.161e-05 0
1.22338 4.52923e-05 0
1.22353 4.82087e-05 0
1.22355 5.00888e-05 0
1.22355 5.07205e-05 0
1.22353 4.99371e-05 0
1.2235 4.76168e-05 0
1.22335 4.36867e-05 0
1.22264 3.81277e-05 0
1.21947 3.09827e-05 0
1.20711 2.2387e-05 0
1.1657 1.26757e-05 0
1.04942 2.70348e-06 0
0.784224 -5.5043e-06 0
0.312318 -8.09835e-06 0
-0.312728 1.893e-05 0
0.31233 1.68426e-07 0
0.783329 1.90496e-05 0
1.04814 2.45133e-05 0
1.16476 2.76437e-05 0
1.20666 3.06877e-05 0
1.21934 3.40907e-05 0
1.22264 3.75252e-05 0
1.22339 4.0583e-05 0
1.22354 4.29537e-05 0
1.22356 4.44091e-05 0
1.22356 4.47724e-05 0
1.22355 4.39057e-05 0
1.22352 4.17099e-05 0
1.22338 3.81283e-05 0
1.22266 3.31506e-05 0
1.21949 2.68191e-05 0
1.20714 1.92503e-05 0
1.16572 1.07233e-05 0
1.04944 1.96066e-06 0
0.784242 -5.26587e-06 0
0.312326 -7.48336e-06 0
-0.312732 1.75558e-05 0
0.312333 1.56211e-07 0
0.783338 1.76544e-05 0
1.04815 2.26375e-05 0
1.16477 2.53874e-05 0
1.20668 2.80228e-05 0
1.21935 3.09709e-05 0
1.22265 3.39367e-05 0
1.2234 3.65551e-05 0
1.22355 3.85545e-05 0
1.22358 3.97397e-05 0
1.22358 3.99611e-05 0
1.22357 3.91035e-05 0
1.22354 3.70853e-05 0
1.22339 3.38618e-05 0
1.22268 2.94281e-05 0
1.21952 2.38232e-05 0
1.20716 1.71435e-05 0
1.16575 9.61289e-06 0
1.04946 1.82867e-06 0
0.784258 -4.67084e-06 0
0.312333 -6.74345e-06 0
-0.312735 1.61312e-05 0
0.312337 1.43547e-07 0
0.783347 1.62013e-05 0
1.04816 2.07256e-05 0
1.16478 2.31673e-05 0
1.20669 2.55102e-05 0
1.21936 2.81469e-05 0
1.22266 3.08001e-05 0
1.22342 3.31354e-05 0
1.22357 3.49105e-05 0
1.22359 3.59551e-05 0
1.22359 3.61406e-05 0
1.22358 3.53687e-05 0
1.22356 3.35703e-05 0
1.22341 3.07089e-05 0
1.2227 2.67822e-05 0
1.21954 2.1824e-05 0
1.20718 1.59101e-05 0
1.16577 9.21149e-06 0
1.04948 2.20723e-06 0
0.784273 -3.7796e-06 0
0.312339 -5.90019e-06 0
-0.312738 1.46567e-05 0
0.312339 1.30438e-07 0
0.783354 1.46974e-05 0
1.04817 1.8794e-05 0
1.16479 2.09983e-05 0
1.2067 2.31528e-05 0
1.21937 2.56034e-05 0
1.22267 2.8078e-05 0
1.22343 3.02638e-05 0
1.22358 3.19401e-05 0
1.2236 3.29549e-05 0
1.2236 3.31948e-05 0
1.2236 3.2573e-05 0
1.22357 3.10291e-05 0
1.22343 2.85309e-05 0
1.22272 2.50763e-05 0
1.21955 2.06921e-05 0
1.2072 1.54341e-05 0
1.16578 9.42254e-06 0
1.0495 3.02559e-06 0
0.784287 -2.63329e-06 0
0.312345 -4.96756e-06 0
-0.312741 1.31394e-05 0
0.312342 1.16949e-07 0
0.783361 1.31574e-05 0
1.04818 1.68605e-05 0
1.1648 1.8894e-05 0
1.2067 2.09531e-05 0
1.21938 2.33269e-05 0
1.22268 2.57395e-05 0
1.22343 2.78919e-05 0
1.22359 2.95784e-05 0
1.22361 3.066e-05 0
1.22362 3.10331e-05 0
1.22361 3.06183e-05 0
1.22358 2.9359e-05 0
1.22344 2.72244e-05 0
1.22273 2.421e-05 0
1.21957 2.03346e-05 0
1.20721 1.5634e-05 0
1.1658 1.01805e-05 0
1.04952 4.23769e-06 0
0.7843 -1.25715e-06 0
0.312351 -3.9534e-06 0
-0.312742 1.15947e-05 0
0.312344 1.03216e-07 0