# vtk DataFile Version 3.0
vtk output
ASCII
DATASET UNSTRUCTURED_GRID
POINTS 1913 double
0.045977 0 0
0.045977 0.0952381 0
0.045977 0.142857 0
0.045977 0.190476 0
0.045977 0.238095 0
0.045977 0.285714 0
0.045977 0.333333 0
0.045977 0.380952 0
0.045977 0.428571 0
0.045977 0.47619 0
0.045977 0.52381 0
0.045977 0.571429 0
0.045977 0.619048 0
0.045977 0.666667 0
0.045977 0.714286 0
0.045977 0.761905 0
0.045977 0.809524 0
0.045977 0.857143 0
0.045977 0.904762 0
0.045977 0.952381 0
0.045977 1 0
0.091954 0 0
0.091954 0.047619 0
0.091954 0.0952381 0
0.091954 0.142857 0
0.091954 0.190476 0
0.091954 0.238095 0
0.091954 0.285714 0
0.091954 0.333333 0
0.091954 0.380952 0
0.091954 0.428571 0
0.091954 0.47619 0
0.091954 0.52381 0
0.091954 0.571429 0
0.091954 0.619048 0
0.091954 0.666667 0
0.091954 0.714286 0
0.091954 0.761905 0
0.091954 0.809524 0
0.091954 0.857143 0
0.091954 0.904762 0
0.091954 0.952381 0
0.091954 1 0
0.137931 0 0
0.137931 0.047619 0
0.137931 0.0952381 0
0.137931 0.142857 0
0.137931 0.190476 0
0.137931 0.238095 0
0.137931 0.285714 0
0.137931 0.333333 0
0.137931 0.380952 0
0.137931 0.428571 0
0.137931 0.47619 0
0.137931 0.52381 0
0.137931 0.571429 0
0.137931 0.619048 0
0.137931 0.666667 0
0.137931 0.714286 0
0.137931 0.761905 0
0.137931 0.809524 0
0.137931 0.857143 0
0.137931 0.904762 0
0.137931 0.952381 0
0.137931 1 0
0.183908 0 0
0.183908 0.047619 0
0.183908 0.0952381 0
0.183908 0.142857 0
0.183908 0.190476 0
0.183908 0.238095 0
0.183908 0.285714 0
0.183908 0.333333 0
0.183908 0.380952 0
0.183908 0.428571 0
0.183908 0.47619 0
0.183908 0.52381 0
0.183908 0.571429 0
0.183908 0.619048 0
0.183908 0.666667 0
0.183908 0.714286 0
0.183908 0.761905 0
0.183908 0.809524 0
0.183908 0.857143 0
0.183908 0.904762 0
0.183908 0.952381 0
0.183908 1 0
0.229885 0 0
0.229885 0.047619 0
0.229885 0.0952381 0
0.229885 0.142857 0
0.229885 0.190476 0
0.229885 0.238095 0
0.229885 0.285714 0
0.229885 0.333333 0
0.229885 0.380952 0
0.229885 0.428571 0
0.229885 0.47619 0
0.229885 0.52381 0
0.229885 0.571429 0
0.229885 0.619048 0
0.229885 0.666667 0
0.229885 0.714286 0
0.229885 0.761905 0
0.229885 0.809524 0
0.229885 0.857143 0
0.229885 0.904762 0
0.229885 0.952381 0
0.229885 1 0
0.275862 0 0
0.275862 0.047619 0
0.275862 0.0952381 0
0.275862 0.142857 0
0.275862 0.190476 0
0.275862 0.238095 0
0.275862 0.285714 0
0.275862 0.333333 0
0.275862 0.380952 0
0.275862 0.428571 0
0.275862 0.47619 0
0.275862 0.52381 0
0.275862 0.571429 0
0.275862 0.619048 0
0.275862 0.666667 0
0.275862 0.714286 0
0.275862 0.761905 0
0.275862 0.809524 0
0.275862 0.857143 0
0.275862 0.904762 0
0.275862 0.952381 0
0.275862 1 0
0.321839 0 0
0.321839 0.047619 0
0.321839 0.0952381 0
0.321839 0.142857 0
0.321839 0.190476 0
0.321839 0.238095 0
0.321839 0.285714 0
0.321839 0.333333 0
0.321839 0.380952 0
0.321839 0.428571 0
0.321839 0.47619 0
0.321839 0.52381 0
0.321839 0.571429 0
0.321839 0.619048 0
0.321839 0.666667 0
0.321839 0.714286 0
0.321839 0.761905 0
0.321839 0.809524 0
0.321839 0.857143 0
0.321839 0.904762 0
0.321839 0.952381 0
0.321839 1 0
0.367816 0 0
0.367816 0.047619 0
0.367816 0.0952381 0
0.367816 0.142857 0
0.367816 0.190476 0
0.367816 0.238095 0
0.367816 0.285714 0
0.367816 0.333333 0
0.367816 0.380952 0
0.367816 0.428571 0
0.367816 0.47619 0
0.367816 0.52381 0
0.367816 0.571429 0
0.367816 0.619048 0
0.367816 0.666667 0
0.367816 0.714286 0
0.367816 0.761905 0
0.367816 0.809524 0
0.367816 0.857143 0
0.367816 0.904762 0
0.367816 0.952381 0
0.367816 1 0
0.413793 0 0
0.413793 0.047619 0
0.413793 0.0952381 0
0.413793 0.142857 0
0.413793 0.190476 0
0.413793 0.238095 0
0.413793 0.285714 0
0.413793 0.333333 0
0.413793 0.380952 0
0.413793 0.428571 0
0.413793 0.47619 0
0.413793 0.52381 0
0.413793 0.571429 0
0.413793 0.619048 0
0.413793 0.666667 0
0.413793 0.714286 0
0.413793 0.761905 0
0.413793 0.809524 0
0.413793 0.857143 0
0.413793 0.904762 0
0.413793 0.952381 0
0.413793 1 0
0.45977 0 0
0.45977 0.047619 0
0.45977 0.0952381 0
0.45977 0.142857 0
0.45977 0.190476 0
0.45977 0.238095 0
0.45977 0.285714 0
0.45977 0.333333 0
0.45977 0.380952 0
0.45977 0.428571 0
0.45977 0.47619 0
0.45977 0.52381 0
0.45977 0.571429 0
0.45977 0.619048 0
0.45977 0.666667 0
0.45977 0.714286 0
0.45977 0.761905 0
0.45977 0.809524 0
0.45977 0.857143 0
0.45977 0.904762 0
0.45977 0.952381 0
0.45977 1 0
0.505747 0 0
0.505747 0.047619 0
0.505747 0.0952381 0
0.505747 0.142857 0
0.505747 0.190476 0
0.505747 0.238095 0
0.505747 0.285714 0
0.505747 0.333333 0
0.505747 0.380952 0
0.505747 0.428571 0
0.505747 0.47619 0
0.505747 0.52381 0
0.505747 0.571429 0
0.505747 0.619048 0
0.505747 0.666667 0
0.505747 0.714286 0
0.505747 0.761905 0
0.505747 0.809524 0
0.505747 0.857143 0
0.505747 0.904762 0
0.505747 0.952381 0
0.505747 1 0
0.551724 0 0
0.551724 0.047619 0
0.551724 0.0952381 0
0.551724 0.142857 0
0.551724 0.190476 0
0.551724 0.238095 0
0.551724 0.285714 0
0.551724 0.333333 0
0.551724 0.380952 0
0.551724 0.428571 0
0.551724 0.47619 0
0.551724 0.52381 0
0.551724 0.571429 0
0.551724 0.619048 0
0.551724 0.666667 0
0.551724 0.714286 0
0.551724 0.761905 0
0.551724 0.809524 0
0.551724 0.857143 0
0.551724 0.904762 0
0.551724 0.952381 0
0.551724 1 0
0.597701 0 0
0.597701 0.047619 0
0.597701 0.0952381 0
0.597701 0.142857 0
0.597701 0.190476 0
0.597701 0.238095 0
0.597701 0.285714 0
0.597701 0.333333 0
0.597701 0.380952 0
0.597701 0.428571 0
0.597701 0.47619 0
0.597701 0.52381 0
0.597701 0.571429 0
0.597701 0.619048 0
0.597701 0.666667 0
0.597701 0.714286 0
0.597701 0.761905 0
0.597701 0.809524 0
0.597701 0.857143 0
0.597701 0.904762 0
0.597701 0.952381 0
0.597701 1 0
0.643678 0 0
0.643678 0.047619 0
0.643678 0.0952381 0
0.643678 0.142857 0
0.643678 0.190476 0
0.643678 0.238095 0
0.643678 0.285714 0
0.643678 0.333333 0
0.643678 0.380952 0
0.643678 0.428571 0
0.643678 0.47619 0
0.643678 0.52381 0
0.643678 0.571429 0
0.643678 0.619048 0
0.643678 0.666667 0
0.643678 0.714286 0
0.643678 0.761905 0
0.643678 0.809524 0
0.643678 0.857143 0
0.643678 0.904762 0
0.643678 0.952381 0
0.643678 1 0
0.689655 0 0
0.689655 0.047619 0
0.689655 0.0952381 0
0.689655 0.142857 0
0.689655 0.190476 0
0.689655 0.238095 0
0.689655 0.285714 0
0.689655 0.333333 0
0.689655 0.380952 0
0.689655 0.428571 0
0.689655 0.47619 0
0.689655 0.52381 0
0.689655 0.571429 0
0.689655 0.619048 0
0.689655 0.666667 0
0.689655 0.714286 0
0.689655 0.761905 0
0.689655 0.809524 0
0.689655 0.857143 0
0.689655 0.904762 0
0.689655 0.952381 0
0.689655 1 0
0.735632 0 0
0.735632 0.047619 0
0.735632 0.0952381 0
0.735632 0.142857 0
0.735632 0.190476 0
0.735632 0.238095 0
0.735632 0.285714 0
0.735632 0.333333 0
0.735632 0.380952 0
0.735632 0.428571 0
0.735632 0.47619 0
0.735632 0.52381 0
0.735632 0.571429 0
0.735632 0.619048 0
0.735632 0.666667 0
0.735632 0.714286 0
0.735632 0.761905 0
0.735632 0.809524 0
0.735632 0.857143 0
0.735632 0.904762 0
0.735632 0.952381 0
0.735632 1 0
0.781609 0 0
0.781609 0.047619 0
0.781609 0.0952381 0
0.781609 0.142857 0
0.781609 0.190476 0
0.781609 0.238095 0
0.781609 0.285714 0
0.781609 0.333333 0
0.781609 0.380952 0
0.781609 0.428571 0
0.781609 0.47619 0
0.781609 0.52381 0
0.781609 0.571429 0
0.781609 0.619048 0
0.781609 0.666667 0
0.781609 0.714286 0
0.781609 0.761905 0
0.781609 0.809524 0
0.781609 0.857143 0
0.781609 0.904762 0
0.781609 0.952381 0
0.781609 1 0
0.827586 0 0
0.827586 0.047619 0
0.827586 0.0952381 0
0.827586 0.142857 0
0.827586 0.190476 0
0.827586 0.238095 0
0.827586 0.285714 0
0.827586 0.333333 0
0.827586 0.380952 0
0.827586 0.428571 0
0.827586 0.47619 0
0.827586 0.52381 0
0.827586 0.571429 0
0.827586 0.619048 0
0.827586 0.666667 0
0.827586 0.714286 0
0.827586 0.761905 0
0.827586 0.809524 0
0.827586 0.857143 0
0.827586 0.904762 0
0.827586 0.952381 0
0.827586 1 0
0.873563 0 0
0.873563 0.047619 0
0.873563 0.0952381 0
0.873563 0.142857 0
0.873563 0.190476 0
0.873563 0.238095 0
0.873563 0.285714 0
0.873563 0.333333 0
0.873563 0.380952 0
0.873563 0.428571 0
0.873563 0.47619 0
0.873563 0.52381 0
0.873563 0.571429 0
0.873563 0.619048 0
0.873563 0.666667 0
0.873563 0.714286 0
0.873563 0.761905 0
0.873563 0.809524 0
0.873563 0.857143 0
0.873563 0.904762 0
0.873563 0.952381 0
0.873563 1 0
0.91954 0 0
0.91954 0.047619 0
0.91954 0.0952381 0
0.91954 0.142857 0
0.91954 0.190476 0
0.91954 0.238095 0
0.91954 0.285714 0
0.91954 0.333333 0
0.91954 0.380952 0
0.91954 0.428571 0
0.91954 0.47619 0
0.91954 0.52381 0
0.91954 0.571429 0
0.91954 0.619048 0
0.91954 0.666667 0
0.91954 0.714286 0
0.91954 0.761905 0
0.91954 0.809524 0
0.91954 0.857143 0
0.91954 0.904762 0
0.91954 0.952381 0
0.91954 1 0
0.965517 0 0
0.965517 0.047619 0
0.965517 0.0952381 0
0.965517 0.142857 0
0.965517 0.190476 0
0.965517 0.238095 0
0.965517 0.285714 0
0.965517 0.333333 0
0.965517 0.380952 0
0.965517 0.428571 0
0.965517 0.47619 0
0.965517 0.52381 0
0.965517 0.571429 0
0.965517 0.619048 0
0.965517 0.666667 0
0.965517 0.714286 0
0.965517 0.761905 0
0.965517 0.809524 0
0.965517 0.857143 0
0.965517 0.904762 0
0.965517 0.952381 0
0.965517 1 0
1.01149 0 0
1.01149 0.047619 0
1.01149 0.0952381 0
1.01149 0.142857 0
1.01149 0.190476 0
1.01149 0.238095 0
1.01149 0.285714 0
1.01149 0.333333 0
1.01149 0.380952 0
1.01149 0.428571 0
1.01149 0.47619 0
1.01149 0.52381 0
1.01149 0.571429 0
1.01149 0.619048 0
1.01149 0.666667 0
1.01149 0.714286 0
1.01149 0.761905 0
1.01149 0.809524 0
1.01149 0.857143 0
1.01149 0.904762 0
1.01149 0.952381 0
1.01149 1 0
1.05747 0 0
1.05747 0.047619 0
1.05747 0.0952381 0
1.05747 0.142857 0
1.05747 0.190476 0
1.05747 0.238095 0
1.05747 0.285714 0
1.05747 0.333333 0
1.05747 0.380952 0
1.05747 0.428571 0
1.05747 0.47619 0
1.05747 0.52381 0
1.05747 0.571429 0
1.05747 0.619048 0
1.05747 0.666667 0
1.05747 0.714286 0
1.05747 0.761905 0
1.05747 0.809524 0
1.05747 0.857143 0
1.05747 0.904762 0
1.05747 0.952381 0
1.05747 1 0
1.10345 0 0
1.10345 0.047619 0
1.10345 0.0952381 0
1.10345 0.142857 0
1.10345 0.190476 0
1.10345 0.238095 0
1.10345 0.285714 0
1.10345 0.333333 0
1.10345 0.380952 0
1.10345 0.428571 0
1.10345 0.47619 0
1.10345 0.52381 0
1.10345 0.571429 0
[...]
POINT_DATA 1913
VECTORS velocity[m/s] double
-0 0.209492 0
0 0.209492 0
0 0.209467 0
0 0.181093 0
0 0.150793 0
0 0.122064 0
0 0.0950682 0
0 0.0694686 0
0 0.0448467 0
0 0.0207883 0
0 -0.00310685 0
0 -0.0272393 0
0 -0.0520375 0
0 -0.077993 0
0 -0.105708 0
0 -0.13596 0
0 -0.169796 0
0 -0.208638 0
0 -0.253994 0
0 -0.302511 0
0 -0.309737 0
-0.872282 0.185251 0
0.872282 0.00163391 0
1.07457 0.185251 0
1.10195 0.208897 0
1.1038 0.184548 0
1.10229 0.153182 0
1.10061 0.123421 0
1.09927 0.0958712 0
1.09832 0.069962 0
1.09778 0.0451305 0
1.09762 0.0209034 0
1.09785 -0.00314341 0
1.09849 -0.027423 0
1.09961 -0.0523723 0
1.1013 -0.0784941 0
1.10375 -0.106414 0
1.10721 -0.136973 0
1.11205 -0.171354 0
1.11833 -0.210949 0
1.12138 -0.254796 0
1.08152 -0.286099 0
0.775484 -0.235126 0
-0.694997 0.144686 0
0.694998 0.00129617 0
1.05175 0.144686 0
1.12546 0.189968 0
1.13409 0.178786 0
1.13102 0.151379 0
1.12721 0.122463 0
1.12428 0.0951711 0
1.1223 0.0694749 0
1.12117 0.0448617 0
1.12084 0.0208541 0
1.12129 -0.00296515 0
1.12258 -0.026991 0
1.12483 -0.0516345 0
1.12826 -0.0773628 0
1.13326 -0.104752 0
1.14041 -0.134542 0
1.15028 -0.167533 0
1.16067 -0.203375 0
1.15161 -0.235076 0
1.0323 -0.234581 0
0.548467 -0.146258 0
-0.556553 0.105547 0
0.556554 0.000944886 0
1.00803 0.105547 0
1.13625 0.161811 0
1.16055 0.164812 0
1.15894 0.144769 0
1.15357 0.118844 0
1.14909 0.0928872 0
1.14606 0.0680168 0
1.14435 0.0440611 0
1.14384 0.0206458 0
1.14449 -0.00259198 0
1.14637 -0.0259967 0
1.14967 -0.0499203 0
1.15471 -0.0747509 0
1.16202 -0.100935 0
1.17226 -0.128921 0
1.18488 -0.158638 0
1.19128 -0.187243 0
1.15113 -0.202831 0
0.947025 -0.176653 0
0.407254 -0.0836439 0
-0.455559 0.0738519 0
0.455559 0.000660516 0
0.953702 0.0738519 0
1.13336 0.132298 0
1.1799 0.146386 0
1.18398 0.134484 0
1.17863 0.112883 0
1.17311 0.0891705 0
1.16919 0.0656875 0
1.16696 0.0427858 0
1.16627 0.0202917 0
1.16709 -0.00205799 0
1.16947 -0.0245299 0
1.17364 -0.0473931 0
1.17999 -0.0709257 0
1.18904 -0.0953895 0
1.20095 -0.12082 0
1.2125 -0.146122 0
1.20633 -0.166331 0
1.12586 -0.167651 0
0.857224 -0.127933 0
0.326495 -0.0478101 0
-0.384892 0.0504929 0
0.384893 0.000451233 0
0.897272 0.0504929 0
1.11975 0.105621 0
1.1914 0.126839 0
1.20483 0.122199 0
1.20152 0.10532 0
1.19578 0.0843834 0
1.19131 0.0626882 0
1.18868 0.0411413 0
1.18785 0.0198221 0
1.18878 -0.00140321 0
1.19155 -0.0227082 0
1.19637 -0.0442675 0
1.20361 -0.0662376 0
1.2136 -0.0886734 0
1.22538 -0.111174 0
1.23202 -0.131732 0
1.2076 -0.144121 0
1.08751 -0.135243 0
0.779865 -0.0917108 0
0.280334 -0.0286491 0
-0.336577 0.0343646 0
0.336578 0.00030688 0
0.844046 0.0343646 0
1.09927 0.0833919 0
1.19588 0.108298 0
1.22113 0.109378 0
1.22174 0.0969631 0
1.21673 0.078966 0
1.21211 0.0592682 0
1.20926 0.0392592 0
1.20835 0.019279 0
1.20936 -0.000667348 0
1.21236 -0.0206568 0
1.21758 -0.0407714 0
1.22527 -0.0610488 0
1.23532 -0.0813434 0
1.24523 -0.100859 0
1.24398 -0.116921 0
1.19903 -0.12289 0
1.04548 -0.107848 0
0.718978 -0.0661803 0
0.252674 -0.0182951 0
-0.303695 0.0237206 0
0.303696 0.00021168 0
0.79671 0.0237206 0
1.07522 0.0657568 0
1.19484 0.0918225 0
1.23312 0.0970268 0
1.23912 0.0884847 0
1.23575 0.0733253 0
1.23143 0.0556695 0
1.22855 0.0372709 0
1.22761 0.0187062 0
1.22866 0.000114077 0
1.23179 -0.0184929 0
1.23716 -0.0371135 0
1.24487 -0.0556797 0
1.25417 -0.073867 0
1.26074 -0.0905584 0
1.24974 -0.102675 0
1.18451 -0.103806 0
1.00525 -0.0857322 0
0.672745 -0.0484957 0
0.235011 -0.012396 0
-0.280998 0.0168706 0
0.280999 0.000150447 0
0.756124 0.0168706 0
1.05006 0.0521702 0
1.18981 0.0777548 0
1.24137 0.0857097 0
1.25375 0.0803502 0
1.2528 0.067777 0
1.24919 0.0520913 0
1.24648 0.0352885 0
1.24556 0.0181427 0
1.24662 0.000911494 0
1.24977 -0.0163144 0
1.25509 -0.0334645 0
1.26243 -0.050381 0
1.27028 -0.066589 0
1.27244 -0.080732 0
1.25084 -0.0895605 0
1.16706 -0.0872851 0
0.969298 -0.0683088 0
0.637891 -0.0362214 0
0.223043 -0.00880653 0
-0.264856 0.0124811 0
0.264856 0.000111228 0
0.722042 0.0124811 0
1.02536 0.0418626 0
1.18213 0.0660289 0
1.24654 0.0756677 0
1.26589 0.072832 0
1.26794 0.0625322 0
1.26542 0.0486763 0
1.26303 0.033395 0
1.2622 0.0176171 0
1.26325 0.00170155 0
1.26633 -0.0141962 0
1.27142 -0.0299502 0
1.27808 -0.0453288 0
1.28394 -0.0597353 0
1.28097 -0.0716505 0
1.24864 -0.0778335 0
1.14874 -0.0733146 0
0.938318 -0.0547442 0
0.611422 -0.0276012 0
0.214541 -0.00649119 0
-0.252914 0.00962491 0
0.252914 8.57235e-05 0
0.693675 0.00962487 0
1.00202 0.0340831 0
1.17283 0.0563887 0
1.24928 0.0669366 0
1.27584 0.066055 0
1.28132 0.0577097 0
1.28017 0.045512 0
1.27827 0.0316432 0
1.27756 0.0171471 0
1.27861 0.00246663 0
1.28154 -0.0121902 0
1.28627 -0.0266535 0
1.29199 -0.0406321 0
1.29544 -0.0534331 0
1.28694 -0.0634417 0
1.24428 -0.0675526 0
1.13081 -0.0616734 0
0.912112 -0.04423 0
0.591041 -0.0214509 0
0.208274 -0.00493035 0
-0.243704 0.00770944 0
0.243705 6.86298e-05 0
0.670061 0.0077094 0
0.980488 0.0281983 0
1.16264 0.0485173 0
1.25013 0.0594388 0
1.2839 0.0600452 0
1.2931 0.0533586 0
1.29357 0.0426404 0
1.29227 0.0300596 0
1.29174 0.0167403 0
1.29276 0.00319397 0
1.2955 -0.0103284 0
1.29977 -0.0236219 0
1.30435 -0.0363465 0
1.30511 -0.0477367 0
1.29091 -0.0561368 0
1.2386 -0.0586597 0
1.11397 -0.0520593 0
0.890119 -0.0360788 0
0.575091 -0.0169892 0
0.203515 -0.00384441 0
-0.236328 0.00637536 0
0.236329 5.67315e-05 0
0.650279 0.00637531 0
0.96087 0.0237139 0
1.1521 0.0421033 0
1.24955 0.0530444 0
1.29035 0.0547694 0
1.30345 0.0494807 0
1.30571 0.0400707 0
1.30513 0.0286506 0
1.30482 0.0163964 0
1.30581 0.00387491 0
1.30834 -0.00862674 0
1.31205 -0.0208748 0
1.31535 -0.0324888 0
1.31322 -0.0426505 0
1.29334 -0.0497068 0
1.23223 -0.0510362 0
1.09854 -0.044159 0
0.871688 -0.0297406 0
0.5624 -0.0137008 0
0.199804 -0.00307116 0
-0.230229 0.00540988 0
0.230229 4.81254e-05 0
0.633539 0.00540983 0
0.943115 0.0202603 0
1.14154 0.0368702 0
1.24788 0.0476076 0
1.29546 0.0501638 0
1.31253 0.0460494 0
1.31674 0.0377904 0
1.31696 0.027409 0
1.31691 0.0161098 0
1.31789 0.00450403 0
1.32016 -0.00708975 0
1.32327 -0.0184124 0
1.32516 -0.0290496 0
1.32003 -0.0381472 0
1.29463 -0.0440886 0
1.22559 -0.0445383 0
1.08462 -0.0376808 0
0.856202 -0.0247882 0
0.552138 -0.0112414 0
0.196839 -0.00251045 0
-0.225053 0.00468674 0
0.225054 4.16824e-05 0
0.619202 0.00468669 0
0.927079 0.0175673 0
1.13117 0.0325847 0
1.24542 0.042986 0
1.29943 0.046152 0
1.32051 0.043023 0
1.32676 0.0357747 0
1.32787 0.0263196 0
1.32811 0.0158719 0
1.32908 0.00507854 0
1.3311 -0.00571365 0
1.33354 -0.0162219 0
1.33395 -0.0260033 0
1.32577 -0.0341819 0
1.29506 -0.0392023 0
1.21897 -0.0390179 0
1.07217 -0.032369 0
0.843124 -0.0208952 0
0.543709 -0.00937737 0
0.194416 -0.0020975 0
-0.220569 0.00412918 0
0.22057 3.67165e-05 0
0.606766 0.00412913 0
0.91258 0.015439 0
1.12113 0.0290564 0
1.24236 0.0390499 0
1.30246 0.0426564 0
1.32751 0.0403541 0
1.33589 0.0339932 0
1.33796 0.0253632 0
1.33854 0.0156729 0
1.3395 0.00559769 0
1.34124 -0.0044895 0
1.34298 -0.0142831 0
1.34184 -0.0233153 0
1.33062 -0.0307011 0
1.29489 -0.0349633 0
1.21255 -0.0343336 0
1.06109 -0.028006 0
0.832004 -0.0178136 0
0.536681 -0.00794669 0
0.192392 -0.00178902 0
-0.216619 0.0036887 0
0.21662 3.27944e-05 0
0.595847 0.00368864 0
0.899433 0.0137336 0
1.11148 0.0261316 0
1.23888 0.0356858 0
1.30468 0.0396032 0
1.33365 0.0379952 0
1.34423 0.0324138 0
1.34732 0.0245195 0
1.34827 0.0155033 0
1.34924 0.0060623 0
1.3507 -0.00340539 0
1.3517 -0.0125718 0
1.34897 -0.0209478 0
1.33474 -0.0276491 0
1.29428 -0.0312884 0
1.20644 -0.0303573 0
1.05125 -0.0244111 0
0.822478 -0.0153555 0
0.530736 -0.00683522 0
0.190665 -0.00155534 0
-0.213091 0.0033333 0
0.213091 2.96308e-05 0
0.586149 0.00333324 0
0.887464 0.0123477 0
1.10226 0.0236881 0
1.2351 0.0327966 0
1.30623 0.0369264 0
1.33904 0.0359016 0
1.35185 0.0310063 0
1.35602 0.0237691 0
1.35738 0.015354 0
1.35838 0.00647436 0
1.35955 -0.00244799 0
1.35979 -0.0110627 0
1.35545 -0.0188623 0
1.33825 -0.0249717 0
1.29338 -0.0280999 0
1.2007 -0.0269757 0
1.04251 -0.021436 0
0.814252 -0.0133781 0
0.525639 -0.00596113 0
0.189164 -0.00137573 0
-0.209902 0.00304108 0
0.209903 2.703e-05 0
0.577446 0.00304102 0
0.876515 0.0112056 0
1.09346 0.021629 0
1.23111 0.0303009 0
1.30722 0.0345678 0
1.34377 0.0340333 0
1.35884 0.0297428 0
1.36415 0.0230944 0
1.36596 0.0152174 0
1.367 0.00683664 0
1.36787 -0.00160368 0
1.36732 -0.00973089 0
1.36135 -0.0170222 0
1.34127 -0.0226186 0
1.2923 -0.0253277 0
1.19536 -0.0240908 0
1.03473 -0.0189601 0
0.807092 -0.0117726 0
0.521213 -0.00526492 0
0.187837 -0.00123548 0
-0.206993 0.00279655 0
0.206994 2.48542e-05 0
0.569564 0.00279649 0
0.866452 0.0102513 0
1.08509 0.0198777 0
1.22699 0.0281306 0
1.30774 0.0324774 0
1.34791 0.0323551 0
1.36526 0.0285991 0
1.37175 0.0224801 0
1.37405 0.0150874 0
1.37515 0.00715243 0
1.37572 -0.000859217 0
1.37436 -0.00855318 0
1.36675 -0.015394 0
1.34389 -0.0205441 0
1.2911 -0.0229094 0
1.1904 -0.021619 0
1.02779 -0.0168858 0
0.800809 -0.0104557 0
0.517323 -0.00470282 0
0.186644 -0.00112401 0
-0.204318 0.00258854 0
0.204319 2.30037e-05 0
0.562367 0.00258848 0
0.857158 0.00944294 0
1.07712 0.0183737 0
1.2228 0.0262297 0
1.30786 0.0306126 0
1.35154 0.030837 0
1.37117 0.0275543 0
1.37889 0.0219133 0
1.38171 0.0149589 0
1.38289 0.00742526 0
1.38315 -0.000202222 0
1.38097 -0.00750829 0
1.37172 -0.0139475 0
1.34617 -0.0187077 0
1.28986 -0.0207908 0
1.18583 -0.0194898 0
1.02159 -0.0151345 0
0.795255 -0.00936357 0
0.513868 -0.00424229 0
0.18556 -0.00103365 0
-0.201842 0.00240887 0
0.201843 2.14055e-05 0
0.55575 0.00240882 0
0.848536 0.00874909 0
1.06954 0.0170691 0
1.21857 0.0245519 0
1.30764 0.0289377 0
1.35471 0.0294534 0
1.37662 0.0265909 0
1.38561 0.0213832 0
1.38899 0.014828 0
1.39025 0.00765872 0
1.3902 0.000378578 0
1.38719 -0.00657732 0
1.37632 -0.0126561 0
1.34818 -0.017074 0
1.2886 -0.0189252 0
1.18163 -0.0176441 0
1.01602 -0.013643 0
0.790312 -0.00844687 0
0.510771 -0.00385895 0
0.184563 -0.000958755 0
-0.199538 0.00225148 0
0.199539 2.00057e-05 0
0.549629 0.00225143 0
0.840504 0.00814594 0
1.06231 0.0159262 0
1.21433 0.0230593 0
1.30715 0.0274227 0
1.35747 0.0281828 0
1.38164 0.0256943 0
1.39194 0.020881 0
1.39591 0.014692 0
1.39728 0.00785625 0
1.39692 0.00089322 0
1.39306 -0.00574373 0
1.38059 -0.0114967 0
1.34997 -0.0156126 0
1.28737 -0.0172727 0
1.17777 -0.0160326 0
1.011 -0.0123606 0
0.785883 -0.00766742 0
0.507972 -0.00353439 0
0.183638 -0.000895186 0
-0.197385 0.00211183 0
0.197386 1.87639e-05 0
0.543939 0.00211179 0
0.832993 0.00761527 0
1.05543 0.0149149 0
1.21012 0.0217207 0
1.30641 0.0260422 0
1.35988 0.0270072 0
1.38629 0.0248522 0
1.39791 0.0203995 0
1.40251 0.0145485 0
1.404 0.00802105 0
1.40333 0.00135046 0
1.39861 -0.00499326 0
1.38456 -0.0104495 0
1.35158 -0.0142973 0
1.28617 -0.0157992 0
1.17422 -0.0146145 0
1.00647 -0.0112463 0
0.781893 -0.00699552 0
0.505424 -0.00325463 0
0.182774 -0.00083986 0
-0.195365 0.0019865 0
0.195367 1.76495e-05 0
0.538626 0.00198647 0
0.825946 0.00714309 0
1.04886 0.0140115 0
1.20595 0.0205105 0
1.30548 0.0247752 0
1.36196 0.0259113 0
1.39059 0.0240544 0
1.40356 0.0199328 0
1.40881 0.0143959 0
1.41045 0.00815594 0
1.40945 0.00175778 0
1.40388 -0.00431383 0
1.38828 -0.00949774 0
1.35303 -0.0131058 0
1.28503 -0.0144763 0
1.17097 -0.0133561 0
1.00237 -0.0102676 0
0.778282 -0.00640801 0
0.503094 -0.003009 0
0.181964 -0.000790473 0
-0.193465 0.00187288 0
0.193467 1.66394e-05 0
0.533648 0.00187286 0
0.819315 0.00671849 0
1.04258 0.0131968 0
1.20183 0.0194077 0
1.30439 0.0236039 0
1.36375 0.0248822 0
1.39457 0.0232923 0
1.40891 0.0194759 0
1.41484 0.0142328 0
1.41662 0.00826326 0
1.41532 0.00212141 0
1.40889 -0.00369533 0
1.39176 -0.00862736 0
1.35435 -0.0120196 0
1.28395 -0.01328 0
1.16799 -0.0122294 0
0.99864 -0.00939822 0
0.775001 -0.00588681 0
0.500953 -0.00278934 0
0.181202 -0.000745305 0
-0.191674 0.00176897 0
0.191676 1.57156e-05 0
0.52897 0.00176895 0
0.813061 0.00633293 0
1.03659 0.0124554 0
1.19778 0.0183946 0
1.30315 0.0225133 0
1.36529 0.0239089 0
1.39826 0.0225586 0
1.41397 0.0190246 0
1.4206 0.0140579 0
1.42255 0.00834487 0
1.42093 0.00244642 0
1.41365 -0.0031295 0
1.39504 -0.0078267 0
1.35557 -0.0110231 0
1.28293 -0.0121904 0
1.16526 -0.0112118 0
0.99525 -0.00861716 0
0.772011 -0.0054178 0
0.49898 -0.00258943 0
0.180483 -0.000703069 0
-0.189983 0.00167318 0
0.189984 1.48642e-05 0
0.524564 0.00167317 0
0.80715 0.00597964 0
1.03085 0.0117747 0
1.1938 0.0174566 0
1.30181 0.0214904 0
1.36659 0.0229817 0
1.40167 0.0218469 0
1.41877 0.0185751 0
1.42612 0.01387 0
1.42825 0.00840203 0
1.42632 0.00273675 0
1.41819 -0.00260969 0
1.39812 -0.00708626 0
1.3567 -0.0101033 0
1.28199 -0.011191 0
1.16275 -0.0102846 0
0.992162 -0.00790778 0
0.769281 -0.00499004 0
0.497159 -0.00240453 0
0.179805 -0.000662816 0
-0.188383 0.00158427 0
0.188384 1.4074e-05 0
0.520407 0.00158428 0
0.801556 0.00565317 0
1.02537 0.0111445 0
1.18991 0.0165813 0
1.30037 0.020524 0
1.36769 0.0220922 0
1.40483 0.0211512 0
1.42331 0.0181239 0
1.4314 0.0136676 0
1.43372 0.00843542 0
1.43148 0.00299526 0
1.42251 -0.00213078 0
1.40104 -0.00639845 0
1.35775 -0.00924983 0
1.28111 -0.0102684 0
1.16046 -0.0094331 0
0.989346 -0.0072569 0
0.766786 -0.0045951 0
0.495479 -0.00223112 0
0.179166 -0.000623863 0
-0.186868 0.00150126 0
0.186869 1.33362e-05 0
0.516479 0.00150128 0
0.796255 0.00534906 0
1.02012 0.0105562 0
1.1861 0.015758 0
1.29885 0.0196041 0
1.3686 0.0212326 0
1.40775 0.0204663 0
1.42762 0.0176674 0
1.43645 0.0134489 0
1.43897 0.00844512 0
1.43643 0.00322387 0
1.42663 -0.00168897 0
1.40379 -0.00575737 0
1.35873 -0.00845433 0
1.28031 -0.00941178 0
1.15836 -0.00864524 0
0.986777 -0.00665432 0
0.764504 -0.00422666 0
0.493928 -0.00206667 0
0.178565 -0.000585749 0
-0.185433 0.0014233 0
0.185434 1.26434e-05 0
0.512765 0.00142334 0
0.791228 0.00506359 0
1.0151 0.0100024 0
1.18239 0.0149774 0
1.29728 0.018722 0
1.36934 0.0203958 0
1.41046 0.0197868 0
1.43169 0.0172023 0
1.44128 0.0132121 0
1.44402 0.00843062 0
1.44118 0.00342356 0
1.43056 -0.00128167 0
1.4064 -0.00515864 0
1.35966 -0.00771029 0
1.27957 -0.00861265 0
1.15644 -0.00791181 0
0.984434 -0.00609228 0
0.76242 -0.00388011 0
0.492499 -0.00190945 0
0.178 -0.000548198 0
-0.184072 0.00134968 0
0.184073 1.19893e-05 0
0.509251 0.00134975 0
0.78646 0.00479355 0
1.0103 0.00947689 0
1.17878 0.0142313 0
1.29567 0.0178694 0
1.36993 0.0195752 0
1.41295 0.0191079 0
1.43554 0.0167249 0
1.4459 0.0129547 0
1.44885 0.00839081 0
1.44572 0.00359452 0
1.4343 -0.000907363 0
1.40886 -0.00459918 0
1.36053 -0.00701287 0
1.27889 -0.00786451 0
1.15468 -0.0072258 0
0.982299 -0.00556511 0
0.760518 -0.00355228 0
0.491185 -0.00175841 0
0.177472 -0.000511092 0
-0.182782 0.00127974 0
0.182783 1.13678e-05 0
0.505927 0.00127983 0
0.781939 0.00453608 0
1.00571 0.00897386 0
1.17527 0.0135123 0
1.29402 0.0170389 0
1.37038 0.0187641 0
1.41526 0.0184243 0
1.43919 0.0162315 0
1.45031 0.0126741 0
1.45348 0.0083241 0
1.45007 0.00373621 0
1.43787 -0.000565441 0
1.41119 -0.00407708 0
1.36135 -0.00635862 0
1.27828 -0.00716261 0
1.15308 -0.00658214 0
0.980356 -0.0050689 0
0.758787 -0.00324121 0
0.489982 -0.00161305 0
0.176979 -0.000474449 0
-0.181558 0.00121282 0
0.181559 1.07733e-05 0
0.502784 0.00121295 0
0.777655 0.00428847 0
1.00133 0.00848809 0
1.17186 0.0128132 0
1.29236 0.0162232 0
1.37071 0.0179564 0
1.41737 0.0177311 0
1.44262 0.0157181 0
1.45451 0.0123674 0
1.45791 0.00822846 0
1.45422 0.00384748 0
1.44126 -0.000256077 0
1.4134 -0.00359138 0
1.36213 -0.00574533 0
1.27772 -0.00650369 0
1.15162 -0.00597738 0
0.978593 -0.00460118 0
0.757216 -0.0029459 0
0.488884 -0.00147334 0
0.176522 -0.000438397 0
-0.180399 0.00114823 0
0.1804 1.01995e-05 0
0.499815 0.0011484 0
0.773601 0.00404808 0
0.99715 0.0080146 0
1.16857 0.0121276 0
1.29068 0.0154154 0
1.37093 0.017146 0
1.41932 0.0170233 0
1.44586 0.0151807 0
1.45851 0.0120315 0
1.46215 0.00810154 0
1.45819 0.00392674 0
1.44448 1.99444e-05 0
1.41548 -0.00314192 0
1.36286 -0.00517179 0
1.27721 -0.00588572 0
1.15029 -0.00540945 0
0.976995 -0.00416067 0
0.755795 -0.00266612 0
0.487886 -0.0013396 0
0.1761 -0.000403151 0
-0.179302 0.0010852 0
0.179302 9.6396e-06 0
0.497016 0.00108543 0
0.769772 0.00381227 0
0.99318 0.00754854 0
1.1654 0.0114491 0
1.28901 0.0146091 0
1.37105 0.0163268 0
1.4211 0.0162958 0
1.4489 0.0146155 0
1.4623 0.0116632 0
1.46618 0.0079408 0
1.46196 0.00397211 0
1.44754 0.000261409 0
1.41744 -0.00272914 0
1.36355 -0.00463761 0
1.27675 -0.00530769 0
1.14909 -0.0048773 0
0.975554 -0.00374698 0
0.754515 -0.00240221 0
0.486983 -0.00121236 0
0.175712 -0.000368984 0
-0.178264 0.00102291 0
0.178265 9.0863e-06 0
0.494385 0.00102321 0
0.766166 0.00357832 0
0.989415 0.0070852 0
1.16235 0.0107717 0
1.28736 0.0137978 0
1.37108 0.0154932 0
1.42272 0.0155441 0
1.45175 0.0140185 0
1.4659 0.0112593 0
1.47001 0.00774372 0
1.46554 0.00398156 0
1.45043 0.000466858 0
1.41928 -0.00235386 0
1.3642 -0.00414295 0
1.27634 -0.0047693 0
1.148 -0.00438071 0
0.974256 -0.00336037 0
0.753368 -0.00215486 0
0.486169 -0.00109232 0
0.175357 -0.0003362 0
-0.177287 0.000960463 0
0.177287 8.53177e-06 0
0.491918 0.000960856 0
0.762781 0.00334362 0
0.985856 0.00662012 0
1.15943 0.0100897 0
1.28572 0.0129758 0
1.37103 0.01464 0
1.4242 0.0147638 0
1.45442 0.0133862 0
1.46929 0.010817 0
1.47364 0.00750794 0
1.46894 0.00395318 0
1.45315 0.0006348 0
1.42101 -0.00201709 0
1.36481 -0.00368831 0
1.27596 -0.00427077 0
1.14701 -0.00391994 0
0.973093 -0.00300145 0
0.752343 -0.00192494 0
0.485441 -0.000980202 0
0.175034 -0.000305105 0
-0.176369 0.000896998 0
0.176369 7.96823e-06 0
0.489619 0.000897501 0
0.759618 0.0031057 0
0.982507 0.0061493 0
1.15664 0.00939826 0
1.28411 0.012138 0
1.37091 0.0137629 0
1.42553 0.0139512 0
1.4569 0.0127158 0
1.47249 0.010334 0
1.47708 0.00723152 0
1.47214 0.00388534 0
1.45571 0.000763912 0
1.42263 -0.0017198 0
1.36537 -0.00327433 0
1.27563 -0.0038125 0
1.14613 -0.00349551 0
0.972055 -0.00267098 0
0.751432 -0.00171331 0
0.48479 -0.000876652 0
0.17474 -0.000275981 0
-0.175512 0.000831725 0
0.175512 7.3887e-06 0
0.487488 0.000832354 0
0.756681 0.00286253 0
0.979371 0.00566948 0
1.154 0.00869332 0
1.28255 0.0112806 0
1.37073 0.0128583 0
1.42672 0.0131038 0
1.4592 0.0120053 0
1.47549 0.00980875 0
1.48031 0.00691316 0
1.47516 0.00377692 0
1.45811 0.000853253 0
1.42413 -0.00146272 0
1.36589 -0.00290151 0
1.27532 -0.00339492 0
1.14533 -0.00310788 0
0.971132 -0.00236961 0
0.750625 -0.00152064 0
0.484211 -0.00078219 0
0.174475 -0.000249061 0
-0.174718 0.000764032 0
0.174717 6.78774e-06 0
0.485529 0.000764802 0
0.753971 0.0026127 0
0.976453 0.00517853 0
1.1515 0.0079724 0
1.28102 0.0104011 0
1.37049 0.0119244 0
1.42778 0.0122202 0
1.46132 0.0112539 0
1.47828 0.00924066 0
1.48334 0.00655245 0
1.47798 0.00362753 0
1.46035 0.000902467 0
1.42552 -0.00124615 0
1.36637 -0.00257005 0
1.27505 -0.00301818 0
1.14462 -0.0027573 0
0.970313 -0.00209768 0
0.749914 -0.00134732 0
0.483698 -0.000697129 0
0.174236 -0.00022451 0
-0.173989 0.000693576 0
0.173987 6.16228e-06 0
0.483746 0.000694495 0
0.751495 0.0023557 0
0.973756 0.00467583 0
1.14915 0.0072348 0
1.27955 0.00949905 0
1.37021 0.0109612 0
1.42872 0.0113008 0
1.46326 0.0104623 0
1.48088 0.00863053 0
1.48616 0.00615008 0
1.48061 0.00343772 0
1.46242 0.00091197 0
1.4268 -0.00106973 0
1.3668 -0.00227965 0
1.2748 -0.002682 0
1.14398 -0.00244358 0
0.96959 -0.0018551 0
0.749287 -0.00119335 0
0.483243 -0.000621534 0
0.17402 -0.000202413 0
-0.173327 0.000620354 0
0.173324 5.51228e-06 0
0.482143 0.000621423 0
0.749256 0.00209207 0
0.971287 0.0041625 0
1.14697 0.00648205 0
1.27814 0.00857623 0
1.36988 0.00997076 0
1.42953 0.0103481 0
1.46503 0.00963283 0
1.48327 0.00798065 0
1.48878 0.00570805 0
1.48305 0.00320915 0
1.46434 0.000883106 0
1.42797 -0.000932345 0
1.36719 -0.0020293 0
1.27457 -0.0023855 0
1.14342 -0.00216594 0
0.968953 -0.00164124 0
0.748736 -0.00105827 0
0.482839 -0.000555209 0
0.173826 -0.000182771 0
-0.172735 0.000544749 0
0.172731 4.84111e-06 0
0.480724 0.000545959 0
0.747258 0.00182352 0
0.969048 0.00364161 0
1.14495 0.0057181 0
1.2768 0.00763708 0
1.36952 0.00895776 0