# vtk DataFile Version 3.0
vtk output
ASCII
DATASET UNSTRUCTURED_GRID
POINTS 1913 double
0.045977 0 0
0.045977 0.0952381 0
0.045977 0.142857 0
0.045977 0.190476 0
0.045977 0.238095 0
0.045977 0.285714 0
0.045977 0.333333 0
0.045977 0.380952 0
0.045977 0.428571 0
0.045977 0.47619 0
0.045977 0.52381 0
0.045977 0.571429 0
0.045977 0.619048 0
0.045977 0.666667 0
0.045977 0.714286 0
0.045977 0.761905 0
0.045977 0.809524 0
0.045977 0.857143 0
0.045977 0.904762 0
0.045977 0.952381 0
0.045977 1 0
0.091954 0 0
0.091954 0.047619 0
0.091954 0.0952381 0
0.091954 0.142857 0
0.091954 0.190476 0
0.091954 0.238095 0
0.091954 0.285714 0
0.091954 0.333333 0
0.091954 0.380952 0
0.091954 0.428571 0
0.091954 0.47619 0
0.091954 0.52381 0
0.091954 0.571429 0
0.091954 0.619048 0
0.091954 0.666667 0
0.091954 0.714286 0
0.091954 0.761905 0
0.091954 0.809524 0
0.091954 0.857143 0
0.091954 0.904762 0
0.091954 0.952381 0
0.091954 1 0
0.137931 0 0
0.137931 0.047619 0
0.137931 0.0952381 0
0.137931 0.142857 0
0.137931 0.190476 0
0.137931 0.238095 0
0.137931 0.285714 0
0.137931 0.333333 0
0.137931 0.380952 0
0.137931 0.428571 0
0.137931 0.47619 0
0.137931 0.52381 0
0.137931 0.571429 0
0.137931 0.619048 0
0.137931 0.666667 0
0.137931 0.714286 0
0.137931 0.761905 0
0.137931 0.809524 0
0.137931 0.857143 0
0.137931 0.904762 0
0.137931 0.952381 0
0.137931 1 0
0.183908 0 0
0.183908 0.047619 0
0.183908 0.0952381 0
0.183908 0.142857 0
0.183908 0.190476 0
0.183908 0.238095 0
0.183908 0.285714 0
0.183908 0.333333 0
0.183908 0.380952 0
0.183908 0.428571 0
0.183908 0.47619 0
0.183908 0.52381 0
0.183908 0.571429 0
0.183908 0.619048 0
0.183908 0.666667 0
0.183908 0.714286 0
0.183908 0.761905 0
0.183908 0.809524 0
0.183908 0.857143 0
0.183908 0.904762 0
0.183908 0.952381 0
0.183908 1 0
0.229885 0 0
0.229885 0.047619 0
0.229885 0.0952381 0
0.229885 0.142857 0
0.229885 0.190476 0
0.229885 0.238095 0
0.229885 0.285714 0
0.229885 0.333333 0
0.229885 0.380952 0
0.229885 0.428571 0
0.229885 0.47619 0
0.229885 0.52381 0
0.229885 0.571429 0
0.229885 0.619048 0
0.229885 0.666667 0
0.229885 0.714286 0
0.229885 0.761905 0
0.229885 0.809524 0
0.229885 0.857143 0
0.229885 0.904762 0
0.229885 0.952381 0
0.229885 1 0
0.275862 0 0
0.275862 0.047619 0
0.275862 0.0952381 0
0.275862 0.142857 0
0.275862 0.190476 0
0.275862 0.238095 0
0.275862 0.285714 0
0.275862 0.333333 0
0.275862 0.380952 0
0.275862 0.428571 0
0.275862 0.47619 0
0.275862 0.52381 0
0.275862 0.571429 0
0.275862 0.619048 0
0.275862 0.666667 0
0.275862 0.714286 0
0.275862 0.761905 0
0.275862 0.809524 0
0.275862 0.857143 0
0.275862 0.904762 0
0.275862 0.952381 0
0.275862 1 0
0.321839 0 0
0.321839 0.047619 0
0.321839 0.0952381 0
0.321839 0.142857 0
0.321839 0.190476 0
0.321839 0.238095 0
0.321839 0.285714 0
0.321839 0.333333 0
0.321839 0.380952 0
0.321839 0.428571 0
0.321839 0.47619 0
0.321839 0.52381 0
0.321839 0.571429 0
0.321839 0.619048 0
0.321839 0.666667 0
0.321839 0.714286 0
0.321839 0.761905 0
0.321839 0.809524 0
0.321839 0.857143 0
0.321839 0.904762 0
0.321839 0.952381 0
0.321839 1 0
0.367816 0 0
0.367816 0.047619 0
0.367816 0.0952381 0
0.367816 0.142857 0
0.367816 0.190476 0
0.367816 0.238095 0
0.367816 0.285714 0
0.367816 0.333333 0
0.367816 0.380952 0
0.367816 0.428571 0
0.367816 0.47619 0
0.367816 0.52381 0
0.367816 0.571429 0
0.367816 0.619048 0
0.367816 0.666667 0
0.367816 0.714286 0
0.367816 0.761905 0
0.367816 0.809524 0
0.367816 0.857143 0
0.367816 0.904762 0
0.367816 0.952381 0
0.367816 1 0
0.413793 0 0
0.413793 0.047619 0
0.413793 0.0952381 0
0.413793 0.142857 0
0.413793 0.190476 0
0.413793 0.238095 0
0.413793 0.285714 0
0.413793 0.333333 0
0.413793 0.380952 0
0.413793 0.428571 0
0.413793 0.47619 0
0.413793 0.52381 0
0.413793 0.571429 0
0.413793 0.619048 0
0.413793 0.666667 0
0.413793 0.714286 0
0.413793 0.761905 0
0.413793 0.809524 0
0.413793 0.857143 0
0.413793 0.904762 0
0.413793 0.952381 0
0.413793 1 0
0.45977 0 0
0.45977 0.047619 0
0.45977 0.0952381 0
0.45977 0.142857 0
0.45977 0.190476 0
0.45977 0.238095 0
0.45977 0.285714 0
0.45977 0.333333 0
0.45977 0.380952 0
0.45977 0.428571 0
0.45977 0.47619 0
0.45977 0.52381 0
0.45977 0.571429 0
0.45977 0.619048 0
0.45977 0.666667 0
0.45977 0.714286 0
0.45977 0.761905 0
0.45977 0.809524 0
0.45977 0.857143 0
0.45977 0.904762 0
0.45977 0.952381 0
0.45977 1 0
0.505747 0 0
0.505747 0.047619 0
0.505747 0.0952381 0
0.505747 0.142857 0
0.505747 0.190476 0
0.505747 0.238095 0
0.505747 0.285714 0
0.505747 0.333333 0
0.505747 0.380952 0
0.505747 0.428571 0
0.505747 0.47619 0
0.505747 0.52381 0
0.505747 0.571429 0
0.505747 0.619048 0
0.505747 0.666667 0
0.505747 0.714286 0
0.505747 0.761905 0
0.505747 0.809524 0
0.505747 0.857143 0
0.505747 0.904762 0
0.505747 0.952381 0
0.505747 1 0
0.551724 0 0
0.551724 0.047619 0
0.551724 0.0952381 0
0.551724 0.142857 0
0.551724 0.190476 0
0.551724 0.238095 0
0.551724 0.285714 0
0.551724 0.333333 0
0.551724 0.380952 0
0.551724 0.428571 0
0.551724 0.47619 0
0.551724 0.52381 0
0.551724 0.571429 0
0.551724 0.619048 0
0.551724 0.666667 0
0.551724 0.714286 0
0.551724 0.761905 0
0.551724 0.809524 0
0.551724 0.857143 0
0.551724 0.904762 0
0.551724 0.952381 0
0.551724 1 0
0.597701 0 0
0.597701 0.047619 0
0.597701 0.0952381 0
0.597701 0.142857 0
0.597701 0.190476 0
0.597701 0.238095 0
0.597701 0.285714 0
0.597701 0.333333 0
0.597701 0.380952 0
0.597701 0.428571 0
0.597701 0.47619 0
0.597701 0.52381 0
0.597701 0.571429 0
0.597701 0.619048 0
0.597701 0.666667 0
0.597701 0.714286 0
0.597701 0.761905 0
0.597701 0.809524 0
0.597701 0.857143 0
0.597701 0.904762 0
0.597701 0.952381 0
0.597701 1 0
0.643678 0 0
0.643678 0.047619 0
0.643678 0.0952381 0
0.643678 0.142857 0
0.643678 0.190476 0
0.643678 0.238095 0
0.643678 0.285714 0
0.643678 0.333333 0
0.643678 0.380952 0
0.643678 0.428571 0
0.643678 0.47619 0
0.643678 0.52381 0
0.643678 0.571429 0
0.643678 0.619048 0
0.643678 0.666667 0
0.643678 0.714286 0
0.643678 0.761905 0
0.643678 0.809524 0
0.643678 0.857143 0
0.643678 0.904762 0
0.643678 0.952381 0
0.643678 1 0
0.689655 0 0
0.689655 0.047619 0
0.689655 0.0952381 0
0.689655 0.142857 0
0.689655 0.190476 0
0.689655 0.238095 0
0.689655 0.285714 0
0.689655 0.333333 0
0.689655 0.380952 0
0.689655 0.428571 0
0.689655 0.47619 0
0.689655 0.52381 0
0.689655 0.571429 0
0.689655 0.619048 0
0.689655 0.666667 0
0.689655 0.714286 0
0.689655 0.761905 0
0.689655 0.809524 0
0.689655 0.857143 0
0.689655 0.904762 0
0.689655 0.952381 0
0.689655 1 0
0.735632 0 0
0.735632 0.047619 0
0.735632 0.0952381 0
0.735632 0.142857 0
0.735632 0.190476 0
0.735632 0.238095 0
0.735632 0.285714 0
0.735632 0.333333 0
0.735632 0.380952 0
0.735632 0.428571 0
0.735632 0.47619 0
0.735632 0.52381 0
0.735632 0.571429 0
0.735632 0.619048 0
0.735632 0.666667 0
0.735632 0.714286 0
0.735632 0.761905 0
0.735632 0.809524 0
0.735632 0.857143 0
0.735632 0.904762 0
0.735632 0.952381 0
0.735632 1 0
0.781609 0 0
0.781609 0.047619 0
0.781609 0.0952381 0
0.781609 0.142857 0
0.781609 0.190476 0
0.781609 0.238095 0
0.781609 0.285714 0
0.781609 0.333333 0
0.781609 0.380952 0
0.781609 0.428571 0
0.781609 0.47619 0
0.781609 0.52381 0
0.781609 0.571429 0
0.781609 0.619048 0
0.781609 0.666667 0
0.781609 0.714286 0
0.781609 0.761905 0
0.781609 0.809524 0
0.781609 0.857143 0
0.781609 0.904762 0
0.781609 0.952381 0
0.781609 1 0
0.827586 0 0
0.827586 0.047619 0
0.827586 0.0952381 0
0.827586 0.142857 0
0.827586 0.190476 0
0.827586 0.238095 0
0.827586 0.285714 0
0.827586 0.333333 0
0.827586 0.380952 0
0.827586 0.428571 0
0.827586 0.47619 0
0.827586 0.52381 0
0.827586 0.571429 0
0.827586 0.619048 0
0.827586 0.666667 0
0.827586 0.714286 0
0.827586 0.761905 0
0.827586 0.809524 0
0.827586 0.857143 0
0.827586 0.904762 0
0.827586 0.952381 0
0.827586 1 0
0.873563 0 0
0.873563 0.047619 0
0.873563 0.0952381 0
0.873563 0.142857 0
0.873563 0.190476 0
0.873563 0.238095 0
0.873563 0.285714 0
0.873563 0.333333 0
0.873563 0.380952 0
0.873563 0.428571 0
0.873563 0.47619 0
0.873563 0.52381 0
0.873563 0.571429 0
0.873563 0.619048 0
0.873563 0.666667 0
0.873563 0.714286 0
0.873563 0.761905 0
0.873563 0.809524 0
0.873563 0.857143 0
0.873563 0.904762 0
0.873563 0.952381 0
0.873563 1 0
0.91954 0 0
0.91954 0.047619 0
0.91954 0.0952381 0
0.91954 0.142857 0
0.91954 0.190476 0
0.91954 0.238095 0
0.91954 0.285714 0
0.91954 0.333333 0
0.91954 0.380952 0
0.91954 0.428571 0
0.91954 0.47619 0
0.91954 0.52381 0
0.91954 0.571429 0
0.91954 0.619048 0
0.91954 0.666667 0
0.91954 0.714286 0
0.91954 0.761905 0
0.91954 0.809524 0
0.91954 0.857143 0
0.91954 0.904762 0
0.91954 0.952381 0
0.91954 1 0
0.965517 0 0
0.965517 0.047619 0
0.965517 0.0952381 0
0.965517 0.142857 0
0.965517 0.190476 0
0.965517 0.238095 0
0.965517 0.285714 0
0.965517 0.333333 0
0.965517 0.380952 0
0.965517 0.428571 0
0.965517 0.47619 0
0.965517 0.52381 0
0.965517 0.571429 0
0.965517 0.619048 0
0.965517 0.666667 0
0.965517 0.714286 0
0.965517 0.761905 0
0.965517 0.809524 0
0.965517 0.857143 0
0.965517 0.904762 0
0.965517 0.952381 0
0.965517 1 0
1.01149 0 0
1.01149 0.047619 0
1.01149 0.0952381 0
1.01149 0.142857 0
1.01149 0.190476 0
1.01149 0.238095 0
1.01149 0.285714 0
1.01149 0.333333 0
1.01149 0.380952 0
1.01149 0.428571 0
1.01149 0.47619 0
1.01149 0.52381 0
1.01149 0.571429 0
1.01149 0.619048 0
1.01149 0.666667 0
1.01149 0.714286 0
1.01149 0.761905 0
1.01149 0.809524 0
1.01149 0.857143 0
1.01149 0.904762 0
1.01149 0.952381 0
1.01149 1 0
1.05747 0 0
1.05747 0.047619 0
1.05747 0.0952381 0
1.05747 0.142857 0
1.05747 0.190476 0
1.05747 0.238095 0
1.05747 0.285714 0
1.05747 0.333333 0
1.05747 0.380952 0
1.05747 0.428571 0
1.05747 0.47619 0
1.05747 0.52381 0
1.05747 0.571429 0
1.05747 0.619048 0
1.05747 0.666667 0
1.05747 0.714286 0
1.05747 0.761905 0
1.05747 0.809524 0
1.05747 0.857143 0
1.05747 0.904762 0
1.05747 0.952381 0
1.05747 1 0
1.10345 0 0
1.10345 0.047619 0
1.10345 0.0952381 0
1.10345 0.142857 0
1.10345 0.190476 0
1.10345 0.238095 0
1.10345 0.285714 0
1.10345 0.333333 0
1.10345 0.380952 0
1.10345 0.428571 0
1.10345 0.47619 0
1.10345 0.52381 0
1.10345 0.571429 0
[...]
POINT_DATA 1913
VECTORS velocity[m/s] double
-0 0.209461 0
0 0.209461 0
0 0.209392 0
0 0.180982 0
0 0.150652 0
0 0.121895 0
0 0.094875 0
0 0.0692538 0
0 0.0446133 0
0 0.0205391 0
0 -0.00336881 0
0 -0.0275109 0
0 -0.0523155 0
0 -0.0782739 0
0 -0.105988 0
0 -0.136236 0
0 -0.170062 0
0 -0.20889 0
0 -0.254224 0
0 -0.302706 0
0 -0.309868 0
-0.872508 0.185235 0
0.872509 0.00163377 0
1.07481 0.185235 0
1.10218 0.208829 0
1.10403 0.184437 0
1.10251 0.153038 0
1.10083 0.123247 0
1.09948 0.0956721 0
1.09854 0.0697405 0
1.09799 0.0448896 0
1.09783 0.020646 0
1.09806 -0.00341417 0
1.09869 -0.0277039 0
1.09981 -0.05266 0
1.1015 -0.0787851 0
1.10395 -0.106705 0
1.1074 -0.137259 0
1.11223 -0.171631 0
1.11852 -0.211212 0
1.12156 -0.255035 0
1.08166 -0.286291 0
0.775562 -0.235229 0
-0.695239 0.144679 0
0.695239 0.00129611 0
1.05203 0.144679 0
1.12573 0.189909 0
1.13435 0.178676 0
1.13128 0.151229 0
1.12746 0.122281 0
1.12452 0.0949631 0
1.12253 0.0692436 0
1.1214 0.04461 0
1.12106 0.0205851 0
1.12151 -0.0032482 0
1.12279 -0.0272849 0
1.12503 -0.0519359 0
1.12846 -0.0776682 0
1.13345 -0.105058 0
1.14059 -0.134844 0
1.15045 -0.167826 0
1.16083 -0.203653 0
1.15173 -0.235321 0
1.03236 -0.234758 0
0.548445 -0.146326 0
-0.556801 0.105545 0
0.556801 0.00094487 0
1.00836 0.105545 0
1.13657 0.161757 0
1.16085 0.164701 0
1.15922 0.144613 0
1.15383 0.118652 0
1.14935 0.0926672 0
1.14632 0.0677723 0
1.14459 0.0437953 0
1.14407 0.0203617 0
1.14472 -0.00289105 0
1.14659 -0.0263075 0
1.14988 -0.0502395 0
1.15491 -0.075075 0
1.16221 -0.10126 0
1.17244 -0.129243 0
1.18504 -0.158951 0
1.1914 -0.187536 0
1.15119 -0.203077 0
0.946976 -0.17681 0
0.407164 -0.083689 0
-0.455808 0.0738512 0
0.455808 0.000660513 0
0.954089 0.0738512 0
1.13373 0.132247 0
1.18024 0.146274 0
1.18429 0.13432 0
1.17892 0.112679 0
1.17339 0.0889356 0
1.16947 0.0654265 0
1.16722 0.0425023 0
1.16652 0.0199888 0
1.16732 -0.00237692 0
1.1697 -0.0248617 0
1.17386 -0.0477342 0
1.18019 -0.0712728 0
1.18923 -0.0957387 0
1.20112 -0.121167 0
1.21264 -0.146458 0
1.20641 -0.166638 0
1.12583 -0.167896 0
0.857067 -0.128072 0
0.326361 -0.0478438 0
-0.385141 0.0504911 0
0.385141 0.000451219 0
0.897707 0.0504911 0
1.12019 0.10557 0
1.19179 0.126723 0
1.20518 0.122025 0
1.20185 0.105101 0
1.19609 0.0841307 0
1.1916 0.0624075 0
1.18896 0.0408366 0
1.18812 0.0194968 0
1.18903 -0.00174589 0
1.19178 -0.0230649 0
1.19658 -0.0446349 0
1.20381 -0.0666122 0
1.21378 -0.0890509 0
1.22554 -0.111549 0
1.23213 -0.132092 0
1.20762 -0.144443 0
1.08738 -0.135486 0
0.779605 -0.0918382 0
0.280167 -0.0286784 0
-0.336827 0.0343599 0
0.336827 0.00030684 0
0.844527 0.0343599 0
1.09977 0.0833394 0
1.19632 0.108176 0
1.22152 0.109193 0
1.2221 0.096728 0
1.21706 0.0786928 0
1.21243 0.0589645 0
1.20956 0.0389297 0
1.20863 0.0189274 0
1.20962 -0.00103776 0
1.21261 -0.0210427 0
1.2178 -0.0411694 0
1.22548 -0.0614552 0
1.2355 -0.0817536 0
1.24537 -0.101266 0
1.24405 -0.117308 0
1.19898 -0.123227 0
1.04524 -0.108091 0
0.718623 -0.0663016 0
0.252478 -0.0183233 0
-0.303949 0.0237123 0
0.303949 0.000211607 0
0.797237 0.0237123 0
1.07579 0.0657006 0
1.19534 0.0916944 0
1.23356 0.0968289 0
1.23951 0.0882309 0
1.23611 0.0730289 0
1.23177 0.0553396 0
1.22887 0.0369131 0
1.2279 0.0183246 0
1.22893 -0.000288114 0
1.23204 -0.0189122 0
1.23739 -0.0375466 0
1.24507 -0.0561224 0
1.25434 -0.074314 0
1.26086 -0.0909996 0
1.24977 -0.103091 0
1.18436 -0.10416 0
1.00489 -0.085979 0
0.672299 -0.0486155 0
0.234787 -0.0124243 0
-0.281259 0.0168586 0
0.281259 0.000150341 0
0.756696 0.0168586 0
1.05069 0.052109 0
1.19038 0.0776184 0
1.24186 0.0854974 0
1.25419 0.0800756 0
1.25319 0.0674548 0
1.24956 0.0517321 0
1.24682 0.0348988 0
1.24588 0.017727 0
1.24692 0.000473404 0
1.25003 -0.0167715 0
1.25533 -0.0339371 0
1.26264 -0.0508646 0
1.27045 -0.0670771 0
1.27254 -0.0812117 0
1.2508 -0.0900069 0
1.16681 -0.0876573 0
0.968813 -0.0685622 0
0.637356 -0.0363431 0
0.222791 -0.0088359 0
-0.265127 0.0124657 0
0.265127 0.000111092 0
0.722662 0.0124657 0
1.02606 0.0417958 0
1.18278 0.0658828 0
1.2471 0.0754396 0
1.26637 0.0725348 0
1.26837 0.0621817 0
1.26582 0.0482847 0
1.2634 0.0329699 0
1.26253 0.0171635 0
1.26357 0.00122337 0
1.26661 -0.0146956 0
1.27167 -0.0304669 0
1.27829 -0.045858 0
1.2841 -0.0602688 0
1.28103 -0.0721723 0
1.24853 -0.0783137 0
1.14837 -0.0737081 0
0.937705 -0.0550076 0
0.610798 -0.0277276 0
0.21426 -0.00652205 0
-0.253198 0.00960663 0
0.253199 8.55616e-05 0
0.694343 0.00960662 0
1.0028 0.0340101 0
1.17355 0.056232 0
1.2499 0.0666913 0
1.27637 0.0657333 0
1.28179 0.0573284 0
1.2806 0.0450849 0
1.27866 0.0311791 0
1.27793 0.0166518 0
1.27894 0.00194407 0
1.28184 -0.0127364 0
1.28653 -0.0272192 0
1.29221 -0.0412116 0
1.29559 -0.0540165 0
1.28696 -0.0640095 0
1.24408 -0.0680698 0
1.13032 -0.0620913 0
0.911366 -0.0445067 0
0.590324 -0.0215839 0
0.207963 -0.00496309 0
-0.244006 0.00768863 0
0.244006 6.84454e-05 0
0.670782 0.00768862 0
0.981347 0.0281188 0
1.16345 0.0483492 0
1.25083 0.0591751 0
1.28449 0.0596974 0
1.29361 0.0529443 0
1.29403 0.0421749 0
1.29269 0.0295531 0
1.29213 0.0161992 0
1.29311 0.00262271 0
1.29582 -0.010926 0
1.30004 -0.0242415 0
1.30457 -0.0369814 0
1.30524 -0.0483749 0
1.29088 -0.0567547 0
1.23831 -0.0592174 0
1.11334 -0.0525051 0
0.889234 -0.0363719 0
0.574276 -0.0171305 0
0.203172 -0.00387934 0
-0.236649 0.00635231 0
0.236649 5.65272e-05 0
0.651056 0.0063523 0
0.961814 0.0236278 0
1.153 0.0419231 0
1.25032 0.0527612 0
1.29101 0.0543939 0
1.30401 0.0490313 0
1.30622 0.039564 0
1.30558 0.0280982 0
1.30523 0.0158056 0
1.30619 0.00325055 0
1.30868 -0.0092806 0
1.31234 -0.0215533 0
1.31557 -0.0331843 0
1.31333 -0.0433482 0
1.29326 -0.0503792 0
1.23183 -0.0516383 0
1.09776 -0.044636 0
0.870656 -0.030053 0
0.561482 -0.0138517 0
0.199426 -0.00310857 0
-0.230571 0.00538479 0
0.230571 4.79029e-05 0
0.634376 0.00538478 0
0.94415 0.0201676 0
1.14253 0.0366773 0
1.24875 0.0473042 0
1.29618 0.0497593 0
1.31315 0.0455628 0
1.31729 0.0372398 0
1.31745 0.0268074 0
1.31736 0.0154654 0
1.31829 0.00382216 0
1.32053 -0.00780471 0
1.32357 -0.019155 0
1.32538 -0.0298109 0
1.32012 -0.0389096 0
1.29448 -0.04482 0
1.22507 -0.045189 0
1.08368 -0.0381929 0
0.855014 -0.0251226 0
0.55111 -0.0114033 0
0.196425 -0.00255055 0
-0.225418 0.00465975 0
0.225418 4.14429e-05 0
0.620104 0.00465974 0
0.92821 0.0174679 0
1.13227 0.032379 0
1.24638 0.0426616 0
1.30024 0.0457175 0
1.32119 0.0424976 0
1.32736 0.0351778 0
1.3284 0.0256656 0
1.3286 0.0151701 0
1.32952 0.00433476 0
1.33148 -0.00649461 0
1.33386 -0.017034 0
1.33417 -0.0268358 0
1.32583 -0.0350143 0
1.29483 -0.0399977 0
1.21832 -0.0397213 0
1.07106 -0.0329197 0
0.841768 -0.0212542 0
0.542563 -0.00955125 0
0.193963 -0.00214052 0
-0.220959 0.00410039 0
0.220959 3.64609e-05 0
0.607737 0.00410037 0
0.913813 0.015333 0
1.12235 0.0288375 0
1.24343 0.0387041 0
1.30335 0.0421909 0
1.32826 0.0397884 0
1.33654 0.0333477 0
1.33854 0.0246539 0
1.33906 0.01491 0
1.33997 0.00478766 0
1.34166 -0.00534139 0
1.34332 -0.01517 0
1.34207 -0.0242247 0
1.33064 -0.0316089 0
1.29457 -0.0358277 0
1.21175 -0.0350945 0
1.0598 -0.0285993 0
0.830468 -0.0181999 0
0.535408 -0.00813368 0
0.191896 -0.00183515 0
-0.217036 0.00365819 0
0.217036 3.25237e-05 0
0.596892 0.00365818 0
0.900774 0.0136212 0
1.11282 0.0258998 0
1.24006 0.0353184 0
1.30567 0.0391064 0
1.33447 0.0373882 0
1.34494 0.0317181 0
1.34795 0.0237522 0
1.34883 0.0146758 0
1.34975 0.00518179 0
1.35115 -0.00433312 0
1.35207 -0.0135389 0
1.3492 -0.0219398 0
1.33471 -0.0286381 0
1.29386 -0.0322272 0
1.20548 -0.0311804 0
1.04976 -0.025051 0
0.820749 -0.0157717 0
0.529326 -0.00703643 0
0.190125 -0.00160478 0
-0.213535 0.0033012 0
0.213536 2.93459e-05 0
0.587273 0.00330118 0
0.88892 0.0122293 0
1.10373 0.0234436 0
1.2364 0.032408 0
1.30732 0.0363982 0
1.33995 0.0352526 0
1.35263 0.0302588 0
1.35671 0.0229415 0
1.358 0.0144587 0
1.35894 0.00551932 0
1.36004 -0.00345638 0
1.36018 -0.0121155 0
1.35566 -0.0199426 0
1.33818 -0.0260477 0
1.29285 -0.0291187 0
1.19956 -0.0278661 0
1.0408 -0.0221266 0
0.812316 -0.0138267 0
0.524082 -0.00617769 0
0.188575 -0.00142869 0
-0.210377 0.0030075 0
0.210377 2.67321e-05 0
0.578653 0.00300748 0
0.878092 0.0110816 0
1.09507 0.0213725 0
1.23255 0.0298916 0
1.30843 0.0340086 0
1.34477 0.0333423 0
1.35969 0.0289427 0
1.3649 0.0222047 0
1.36663 0.0142516 0
1.36761 0.00580332 0
1.3684 -0.00269738 0
1.36774 -0.0108748 0
1.36156 -0.0181968 0
1.34114 -0.0237876 0
1.29164 -0.0264323 0
1.19402 -0.0250538 0
1.03279 -0.0197056 0
0.804931 -0.0122563 0
0.519497 -0.00549803 0
0.187196 -0.00129219 0
-0.207499 0.00276166 0
0.207499 2.45445e-05 0
0.570857 0.00276164 0
0.868156 0.0101223 0
1.08685 0.0196101 0
1.22858 0.0277019 0
1.30907 0.0318883 0
1.34902 0.0316227 0
1.3662 0.0277463 0
1.37258 0.0215272 0
1.37479 0.0140488 0
1.37582 0.00603745 0
1.3763 -0.00204262 0
1.37481 -0.00979338 0
1.36696 -0.0166687 0
1.3437 -0.0218122 0
1.29031 -0.0241059 0
1.18886 -0.0226601 0
1.02559 -0.0176907 0
0.798406 -0.0109775 0
0.515437 -0.00495378 0
0.185949 -0.00118473 0
-0.204857 0.00255253 0
0.204857 2.2684e-05 0
0.563751 0.00255251 0
0.858996 0.0093096 0
1.07903 0.0180964 0
1.22453 0.0257833 0
1.30933 0.0299955 0
1.35276 0.0300647 0
1.37221 0.0266494 0
1.3798 0.0208967 0
1.38253 0.0138458 0
1.38362 0.00622577 0
1.38378 -0.00147937 0
1.38144 -0.00884988 0
1.37192 -0.0153282 0
1.34591 -0.0200812 0
1.28891 -0.0220854 0
1.18406 -0.0206149 0
1.01911 -0.0160036 0
0.79259 -0.00992647 0
0.511798 -0.00451255 0
0.184805 -0.00109866 0
-0.202414 0.00237197 0
0.202415 2.1078e-05 0
0.557227 0.00237195 0
0.850512 0.00861239 0
1.07161 0.0167838 0
1.22047 0.0240903 0
1.30926 0.0282952 0
1.35606 0.0286436 0
1.37776 0.0256356 0
1.38661 0.0203035 0
1.38988 0.0136397 0
1.39106 0.0063725 0
1.3909 -0.000995857 0
1.3877 -0.00802504 0
1.37651 -0.0141483 0
1.34785 -0.0185592 0
1.28749 -0.0203244 0
1.17961 -0.0188592 0
1.01324 -0.0145812 0
0.787363 -0.00905427 0
0.508502 -0.00415013 0
0.183744 -0.00102844 0
-0.200145 0.00221397 0
0.200145 1.96728e-05 0
0.551202 0.00221395 0
0.842623 0.00800704 0
1.06456 0.0156352 0
1.21641 0.0225856 0
1.30893 0.0267584 0
1.35896 0.027339 0
1.38291 0.0246914 0
1.39304 0.0197398 0
1.3969 0.0134285 0
1.39817 0.00648195 0
1.39768 -0.000581412 0
1.39361 -0.00730188 0
1.38077 -0.013106 0
1.34955 -0.0172156 0
1.28608 -0.018783 0
1.17548 -0.017344 0
1.00791 -0.0133731 0
0.782628 -0.00832297 0
0.505488 -0.00384832 0
0.182752 -0.00096998 0
-0.198027 0.00207405 0
0.198027 1.84285e-05 0
0.545609 0.00207402 0
0.835258 0.00747559 0
1.05785 0.0146211 0
1.21238 0.021239 0
1.30837 0.025361 0
1.36152 0.0261343 0
1.38769 0.0238058 0
1.39914 0.0191997 0
1.40361 0.0132114 0
1.40499 0.00655832 0
1.40417 -0.000226452 0
1.39922 -0.00666554 0
1.38474 -0.0121809 0
1.35106 -0.0160243 0
1.28469 -0.0174274 0
1.17164 -0.0160288 0
1.00303 -0.0123389 0
0.778308 -0.00770322 0
0.502709 -0.0035934 0
0.181815 -0.000920303 0
-0.196042 0.00194883 0
0.196043 1.73151e-05 0
0.540394 0.00194881 0
0.828359 0.00700429 0
1.05146 0.0137183 0
1.2084 0.0200259 0
1.30762 0.0240832 0
1.36377 0.0250156 0
1.39214 0.0229704 0
1.40492 0.018679 0
1.41003 0.0129879 0
1.41154 0.00660568 0
1.41039 7.75257e-05 0
1.40454 -0.00610317 0
1.38845 -0.0113559 0
1.35242 -0.0149627 0
1.28334 -0.0162289 0
1.16808 -0.0148799 0
0.998557 -0.0114461 0
0.77434 -0.00717217 0
0.500128 -0.00337494 0
0.180927 -0.000877211 0
-0.194178 0.00183578 0
0.194178 1.631e-05 0
0.535513 0.00183575 0
0.821877 0.00658257 0
1.04537 0.0129082 0
1.20448 0.0189262 0
1.30672 0.0229087 0
1.36574 0.0239718 0
1.39628 0.0221783 0
1.41041 0.0181745 0
1.41619 0.0127585 0
1.41785 0.0066279 0
1.41636 0.000338022 0
1.40961 -0.00560368 0
1.39193 -0.0106161 0
1.35364 -0.0140118 0
1.28204 -0.0151636 0
1.16476 -0.0138697 0
0.99443 -0.0106689 0
0.770674 -0.00671203 0
0.497717 -0.00318502 0
0.18008 -0.000839091 0
-0.192421 0.00173294 0
0.192422 1.53958e-05 0
0.53093 0.00173291 0
0.815769 0.00620222 0
1.03956 0.0121764 0
1.20064 0.0179237 0
1.3057 0.0218241 0
1.36748 0.0229938 0
1.40015 0.0214244 0
1.41564 0.017684 0
1.42211 0.0125239 0
1.42392 0.00662858 0
1.42209 0.00056161 0
1.41445 -0.00515756 0
1.39521 -0.00994893 0
1.35475 -0.0131554 0
1.28079 -0.0142111 0
1.16167 -0.0129752 0
0.99061 -0.00998615 0
0.767269 -0.00630888 0
0.495452 -0.0030176 0
0.17927 -0.000804756 0
-0.190763 0.00163881 0
0.190764 1.4559e-05 0
0.526615 0.00163878 0
0.810002 0.0058568 0
1.03401 0.011511 0
1.19687 0.0170051 0
1.30457 0.0208183 0
1.36899 0.0220742 0
1.40376 0.0207044 0
1.42062 0.0172062 0
1.4278 0.012285 0
1.42978 0.00661107 0
1.42762 0.000754021 0
1.41908 -0.00475667 0
1.39831 -0.00934375 0
1.35577 -0.0123797 0
1.27959 -0.0133544 0
1.15879 -0.0121776 0
0.98706 -0.00938126 0
0.764091 -0.0059518 0
0.493316 -0.00286805 0
0.178493 -0.000773333 0
-0.189195 0.00155222 0
0.189196 1.37893e-05 0
0.522542 0.00155218 0
0.804543 0.00554126 0
1.0287 0.0109027 0
1.19319 0.0161595 0
1.30335 0.0198822 0
1.37031 0.021207 0
1.40714 0.0200154 0
1.42538 0.0167402 0
1.43328 0.0120429 0
1.43543 0.00657841 0
1.43294 0.000920236 0
1.42351 -0.00439411 0
1.40124 -0.0087915 0
1.35672 -0.0116732 0
1.27846 -0.0125793 0
1.15609 -0.0114614 0
0.983749 -0.00884065 0
0.761114 -0.0056322 0
0.491294 -0.0027328 0
0.177747 -0.00074418 0
-0.18771 0.00147223 0
0.187711 1.30784e-05 0
0.518691 0.00147219 0
0.799366 0.00525156 0
1.02363 0.010344 0
1.1896 0.0153779 0
1.30208 0.0190081 0
1.37146 0.0203872 0
1.4103 0.0193548 0
1.42991 0.0162855 0
1.43856 0.0117989 0
1.4409 0.00653337 0
1.43807 0.00106456 0
1.42775 -0.00406397 0
1.40402 -0.0082845 0
1.35759 -0.0110259 0
1.27738 -0.0118738 0
1.15356 -0.0108138 0
0.980651 -0.00835344 0
0.758315 -0.00534329 0
0.489374 -0.00260913 0
0.177029 -0.000716824 0
-0.186302 0.00139809 0
0.186302 1.24195e-05 0
0.515042 0.00139805 0
0.79445 0.00498445 0
1.01877 0.00982853 0
1.18609 0.0146529 0
1.30074 0.0181897 0
1.37246 0.0196106 0
1.41326 0.0187207 0
1.43424 0.0158421 0
1.44364 0.0115541 0
1.44618 0.00647842 0
1.44302 0.0011907 0
1.43183 -0.00376126 0
1.40667 -0.00781625 0
1.35841 -0.0104297 0
1.27635 -0.0112278 0
1.15118 -0.0102242 0
0.977745 -0.00791078 0
0.755675 -0.00507971 0
0.487547 -0.00249492 0
0.176337 -0.000690918 0
-0.184964 0.00132919 0
0.184965 1.18071e-05 0
0.51158 0.00132915 0
0.789773 0.00473727 0
1.01411 0.00935133 0
1.18268 0.0139783 0
1.29937 0.0174216 0
1.37332 0.0188738 0
1.41604 0.0181116 0
1.43838 0.0154098 0
1.44854 0.0113098 0
1.45128 0.00641573 0
1.4478 0.00130183 0
1.43574 -0.00348174 0
1.40919 -0.00738126 0
1.35918 -0.0098774 0
1.27539 -0.0106329 0
1.14895 -0.00968388 0
0.975012 -0.00750552 0
0.75318 -0.00483716 0
0.485805 -0.0023885 0
0.17567 -0.000666202 0
-0.183693 0.001265 0
0.183693 1.12368e-05 0
0.508289 0.00126497 0
0.785318 0.00450784 0
1.00964 0.00890814 0
1.17935 0.0133489 0
1.29797 0.0166993 0
1.37406 0.0181738 0
1.41865 0.0175262 0
1.44234 0.0149888 0
1.45327 0.0110671 0
1.45622 0.00634724 0
1.45242 0.00140066 0
1.43951 -0.00322186 0
1.4116 -0.00697489 0
1.35991 -0.00936315 0
1.27447 -0.0100819 0
1.14685 -0.00918555 0
0.972436 -0.00713182 0
0.750816 -0.00461224 0
0.484143 -0.0022886 0
0.175027 -0.000642485 0
-0.182482 0.00120511 0
0.182483 1.07045e-05 0
0.505159 0.00120507 0
0.78107 0.00429431 0
1.00536 0.00849539 0
1.17612 0.0127602 0
1.29655 0.0160188 0
1.37468 0.017508 0
1.4211 0.0169634 0
1.44613 0.0145791 0
1.45783 0.0108268 0
1.461 0.00627458 0
1.45688 0.00148948 0
1.44313 -0.0029786 0
1.41391 -0.00659322 0
1.3606 -0.00888189 0
1.2736 -0.00956885 0
1.14486 -0.00872318 0
0.970003 -0.0067849 0
0.748572 -0.00440219 0
0.482554 -0.00219418 0
0.174407 -0.00061962 0
-0.18133 0.00114912 0
0.18133 1.02069e-05 0
0.502176 0.00114908 0
0.777014 0.00409512 0
1.00124 0.00811004 0
1.17297 0.0122085 0
1.29511 0.0153765 0
1.37521 0.0168742 0
1.4234 0.0164223 0
1.44975 0.0141809 0
1.46222 0.0105899 0
1.46562 0.00619915 0
1.4612 0.00157019 0
1.44662 -0.00274944 0
1.41612 -0.00623294 0
1.36127 -0.00842934 0
1.27279 -0.00908876 0
1.14299 -0.00829175 0
0.967703 -0.00646086 0
0.746441 -0.00420479 0
0.481033 -0.00210444 0
0.173809 -0.000597498 0
-0.18023 0.0010967 0
0.180231 9.74121e-06 0
0.499332 0.00109667 0
0.773137 0.00390892 0
0.997282 0.00774948 0
1.16991 0.0116903 0
1.29366 0.0147696 0
1.37565 0.0162704 0
1.42557 0.015902 0
1.45322 0.0137942 0
1.46646 0.0103569 0
1.47009 0.00612211 0
1.46537 0.0016444 0
1.44999 -0.0025323 0
1.41824 -0.00589127 0
1.3619 -0.0080019 0
1.27202 -0.00863735 0
1.14123 -0.00788707 0
0.965525 -0.00615647 0
0.744413 -0.00401821 0
0.479579 -0.00201873 0
0.173232 -0.000576028 0
-0.179181 0.00104757 0
0.179182 9.30463e-06 0
0.496617 0.00104754 0
0.76943 0.00373453 0
0.993477 0.00741143 0
1.16694 0.0112027 0
1.29221 0.0141952 0
1.376 0.0156945 0
1.4276 0.0154016 0
1.45654 0.0134189 0
1.47055 0.0101285 0
1.47441 0.00604437 0
1.4694 0.00171337 0
1.45323 -0.00232547 0
1.42028 -0.0055659 0
1.36252 -0.00759652 0
1.2713 -0.00821102 0
1.13956 -0.00750563 0
0.963461 -0.00586905 0
0.742483 -0.00384099 0
0.478186 -0.00193651 0
0.172676 -0.000555143 0
-0.178179 0.00100145 0
0.17818 8.89485e-06 0
0.494023 0.00100142 0
0.76588 0.0035709 0
0.989817 0.00709384 0
1.16405 0.0107432 0
1.29077 0.0136508 0
1.37628 0.0151448 0
1.42952 0.0149201 0
1.45972 0.0130548 0
1.47449 0.00990495 0
1.47859 0.00596665 0
1.4733 0.00177812 0
1.45636 -0.00212753 0
1.42224 -0.00525488 0
1.36311 -0.00721063 0
1.27061 -0.00780676 0
1.13798 -0.0071445 0
0.961503 -0.0055964 0
0.740644 -0.00367189 0
0.476853 -0.00185735 0
0.17214 -0.000534781 0
-0.177221 0.000958105 0
0.177222 8.50969e-06 0
0.491542 0.000958071 0
0.762478 0.00341709 0
0.986294 0.00679492 0
1.16124 0.0103092 0
1.28932 0.0131341 0
1.3765 0.0146197 0
1.43132 0.0144566 0
1.46276 0.0127018 0
1.4783 0.00968648 0
1.48264 0.00588944 0
1.47707 0.0018394 0
1.45938 -0.0019374 0
1.42413 -0.00495663 0
1.36369 -0.00684208 0
1.26998 -0.00742201 0
1.13648 -0.00680122 0
0.959645 -0.00533666 0
0.738892 -0.0035099 0
0.475576 -0.00178088 0
0.171624 -0.000514894 0
-0.176304 0.000917301 0
0.176305 8.14715e-06 0
0.489168 0.000917269 0
0.759217 0.00327225 0
0.982901 0.00651299 0
1.15852 0.00989868 0
1.28789 0.0126428 0
1.37666 0.0141173 0
1.43301 0.0140102 0
1.46567 0.0123593 0
1.48196 0.00947311 0
1.48655 0.00581304 0
1.48072 0.00189776 0
1.4623 -0.00175422 0
1.42595 -0.00466986 0
1.36425 -0.00648906 0
1.26938 -0.00705463 0
1.13507 -0.00647372 0
0.957881 -0.00508831 0
0.737223 -0.00335418 0
0.474354 -0.00170681 0
0.171127 -0.000495436 0
-0.175427 0.000878835 0
0.175428 7.80539e-06 0
0.486895 0.000878805 0
0.756089 0.00313558 0
0.979632 0.00624655 0
1.15587 0.0095095 0
1.28647 0.012175 0
1.37676 0.013636 0
1.43461 0.0135798 0
1.46846 0.0120269 0
1.4855 0.00926467 0
1.49033 0.00573754 0
1.48425 0.00195351 0
1.46511 -0.0015774 0
1.42771 -0.00439355 0
1.36479 -0.00615009 0
1.26882 -0.00670283 0
1.13373 -0.00616027 0
0.956207 -0.00485005 0
0.735633 -0.00320403 0
0.473184 -0.00163488 0
0.170649 -0.000476368 0
-0.174586 0.000842509 0
0.174587 7.48266e-06 0
0.484716 0.000842481 0
0.753085 0.00300635 0
0.976482 0.00599417 0
1.15329 0.00913979 0
1.28506 0.0117286 0
1.37682 0.0131742 0
1.43611 0.0131642 0
1.47112 0.011704 0
1.4889 0.00906087 0
1.49398 0.00566288 0
1.48766 0.00200678 0
1.46783 -0.00140652 0
1.4294 -0.00412692 0
1.36533 -0.00582399 0
1.26829 -0.00636515 0
1.13246 -0.00585946 0
0.954618 -0.00462084 0
0.734118 -0.00305887 0
0.472066 -0.00156487 0
0.17019 -0.000457655 0
-0.17378 0.00080814 0
0.173781 7.17732e-06 0
0.482627 0.000808116 0
0.750201 0.00288389 0
0.973445 0.00575455 0
1.15079 0.00878773 0
1.28366 0.0113018 0
1.37683 0.0127303 0
1.43752 0.0127621 0
1.47368 0.0113896 0
1.49218 0.00886122 0
1.49751 0.00558878 0
1.49095 0.00205752 0
1.47046 -0.00124139 0
1.43104 -0.00386941 0
1.36585 -0.00550978 0
1.2678 -0.00604035 0
1.13127 -0.00557009 0
0.95311 -0.00439979 0
0.732676 -0.00291821 0
0.470997 -0.00149662 0
0.169748 -0.000439267 0
-0.173007 0.000775554 0
0.173008 6.88783e-06 0
0.480623 0.000775534 0
0.747429 0.00276753 0
0.970517 0.00552641 0
1.14837 0.00845157 0
1.28228 0.0108925 0
1.3768 0.0123024 0
1.43884 0.0123724 0