# vtk DataFile Version 3.0
vtk output
ASCII
DATASET UNSTRUCTURED_GRID
POINTS 1913 double
0.045977 0 0
0.045977 0.0952381 0
0.045977 0.142857 0
0.045977 0.190476 0
0.045977 0.238095 0
0.045977 0.285714 0
0.045977 0.333333 0
0.045977 0.380952 0
0.045977 0.428571 0
0.045977 0.47619 0
0.045977 0.52381 0
0.045977 0.571429 0
0.045977 0.619048 0
0.045977 0.666667 0
0.045977 0.714286 0
0.045977 0.761905 0
0.045977 0.809524 0
0.045977 0.857143 0
0.045977 0.904762 0
0.045977 0.952381 0
0.045977 1 0
0.091954 0 0
0.091954 0.047619 0
0.091954 0.0952381 0
0.091954 0.142857 0
0.091954 0.190476 0
0.091954 0.238095 0
0.091954 0.285714 0
0.091954 0.333333 0
0.091954 0.380952 0
0.091954 0.428571 0
0.091954 0.47619 0
0.091954 0.52381 0
0.091954 0.571429 0
0.091954 0.619048 0
0.091954 0.666667 0
0.091954 0.714286 0
0.091954 0.761905 0
0.091954 0.809524 0
0.091954 0.857143 0
0.091954 0.904762 0
0.091954 0.952381 0
0.091954 1 0
0.137931 0 0
0.137931 0.047619 0
0.137931 0.0952381 0
0.137931 0.142857 0
0.137931 0.190476 0
0.137931 0.238095 0
0.137931 0.285714 0
0.137931 0.333333 0
0.137931 0.380952 0
0.137931 0.428571 0
0.137931 0.47619 0
0.137931 0.52381 0
0.137931 0.571429 0
0.137931 0.619048 0
0.137931 0.666667 0
0.137931 0.714286 0
0.137931 0.761905 0
0.137931 0.809524 0
0.137931 0.857143 0
0.137931 0.904762 0
0.137931 0.952381 0
0.137931 1 0
0.183908 0 0
0.183908 0.047619 0
0.183908 0.0952381 0
0.183908 0.142857 0
0.183908 0.190476 0
0.183908 0.238095 0
0.183908 0.285714 0
0.183908 0.333333 0
0.183908 0.380952 0
0.183908 0.428571 0
0.183908 0.47619 0
0.183908 0.52381 0
0.183908 0.571429 0
0.183908 0.619048 0
0.183908 0.666667 0
0.183908 0.714286 0
0.183908 0.761905 0
0.183908 0.809524 0
0.183908 0.857143 0
0.183908 0.904762 0
0.183908 0.952381 0
0.183908 1 0
0.229885 0 0
0.229885 0.047619 0
0.229885 0.0952381 0
0.229885 0.142857 0
0.229885 0.190476 0
0.229885 0.238095 0
0.229885 0.285714 0
0.229885 0.333333 0
0.229885 0.380952 0
0.229885 0.428571 0
0.229885 0.47619 0
0.229885 0.52381 0
0.229885 0.571429 0
0.229885 0.619048 0
0.229885 0.666667 0
0.229885 0.714286 0
0.229885 0.761905 0
0.229885 0.809524 0
0.229885 0.857143 0
0.229885 0.904762 0
0.229885 0.952381 0
0.229885 1 0
0.275862 0 0
0.275862 0.047619 0
0.275862 0.0952381 0
0.275862 0.142857 0
0.275862 0.190476 0
0.275862 0.238095 0
0.275862 0.285714 0
0.275862 0.333333 0
0.275862 0.380952 0
0.275862 0.428571 0
0.275862 0.47619 0
0.275862 0.52381 0
0.275862 0.571429 0
0.275862 0.619048 0
0.275862 0.666667 0
0.275862 0.714286 0
0.275862 0.761905 0
0.275862 0.809524 0
0.275862 0.857143 0
0.275862 0.904762 0
0.275862 0.952381 0
0.275862 1 0
0.321839 0 0
0.321839 0.047619 0
0.321839 0.0952381 0
0.321839 0.142857 0
0.321839 0.190476 0
0.321839 0.238095 0
0.321839 0.285714 0
0.321839 0.333333 0
0.321839 0.380952 0
0.321839 0.428571 0
0.321839 0.47619 0
0.321839 0.52381 0
0.321839 0.571429 0
0.321839 0.619048 0
0.321839 0.666667 0
0.321839 0.714286 0
0.321839 0.761905 0
0.321839 0.809524 0
0.321839 0.857143 0
0.321839 0.904762 0
0.321839 0.952381 0
0.321839 1 0
0.367816 0 0
0.367816 0.047619 0
0.367816 0.0952381 0
0.367816 0.142857 0
0.367816 0.190476 0
0.367816 0.238095 0
0.367816 0.285714 0
0.367816 0.333333 0
0.367816 0.380952 0
0.367816 0.428571 0
0.367816 0.47619 0
0.367816 0.52381 0
0.367816 0.571429 0
0.367816 0.619048 0
0.367816 0.666667 0
0.367816 0.714286 0
0.367816 0.761905 0
0.367816 0.809524 0
0.367816 0.857143 0
0.367816 0.904762 0
0.367816 0.952381 0
0.367816 1 0
0.413793 0 0
0.413793 0.047619 0
0.413793 0.0952381 0
0.413793 0.142857 0
0.413793 0.190476 0
0.413793 0.238095 0
0.413793 0.285714 0
0.413793 0.333333 0
0.413793 0.380952 0
0.413793 0.428571 0
0.413793 0.47619 0
0.413793 0.52381 0
0.413793 0.571429 0
0.413793 0.619048 0
0.413793 0.666667 0
0.413793 0.714286 0
0.413793 0.761905 0
0.413793 0.809524 0
0.413793 0.857143 0
0.413793 0.904762 0
0.413793 0.952381 0
0.413793 1 0
0.45977 0 0
0.45977 0.047619 0
0.45977 0.0952381 0
0.45977 0.142857 0
0.45977 0.190476 0
0.45977 0.238095 0
0.45977 0.285714 0
0.45977 0.333333 0
0.45977 0.380952 0
0.45977 0.428571 0
0.45977 0.47619 0
0.45977 0.52381 0
0.45977 0.571429 0
0.45977 0.619048 0
0.45977 0.666667 0
0.45977 0.714286 0
0.45977 0.761905 0
0.45977 0.809524 0
0.45977 0.857143 0
0.45977 0.904762 0
0.45977 0.952381 0
0.45977 1 0
0.505747 0 0
0.505747 0.047619 0
0.505747 0.0952381 0
0.505747 0.142857 0
0.505747 0.190476 0
0.505747 0.238095 0
0.505747 0.285714 0
0.505747 0.333333 0
0.505747 0.380952 0
0.505747 0.428571 0
0.505747 0.47619 0
0.505747 0.52381 0
0.505747 0.571429 0
0.505747 0.619048 0
0.505747 0.666667 0
0.505747 0.714286 0
0.505747 0.761905 0
0.505747 0.809524 0
0.505747 0.857143 0
0.505747 0.904762 0
0.505747 0.952381 0
0.505747 1 0
0.551724 0 0
0.551724 0.047619 0
0.551724 0.0952381 0
0.551724 0.142857 0
0.551724 0.190476 0
0.551724 0.238095 0
0.551724 0.285714 0
0.551724 0.333333 0
0.551724 0.380952 0
0.551724 0.428571 0
0.551724 0.47619 0
0.551724 0.52381 0
0.551724 0.571429 0
0.551724 0.619048 0
0.551724 0.666667 0
0.551724 0.714286 0
0.551724 0.761905 0
0.551724 0.809524 0
0.551724 0.857143 0
0.551724 0.904762 0
0.551724 0.952381 0
0.551724 1 0
0.597701 0 0
0.597701 0.047619 0
0.597701 0.0952381 0
0.597701 0.142857 0
0.597701 0.190476 0
0.597701 0.238095 0
0.597701 0.285714 0
0.597701 0.333333 0
0.597701 0.380952 0
0.597701 0.428571 0
0.597701 0.47619 0
0.597701 0.52381 0
0.597701 0.571429 0
0.597701 0.619048 0
0.597701 0.666667 0
0.597701 0.714286 0
0.597701 0.761905 0
0.597701 0.809524 0
0.597701 0.857143 0
0.597701 0.904762 0
0.597701 0.952381 0
0.597701 1 0
0.643678 0 0
0.643678 0.047619 0
0.643678 0.0952381 0
0.643678 0.142857 0
0.643678 0.190476 0
0.643678 0.238095 0
0.643678 0.285714 0
0.643678 0.333333 0
0.643678 0.380952 0
0.643678 0.428571 0
0.643678 0.47619 0
0.643678 0.52381 0
0.643678 0.571429 0
0.643678 0.619048 0
0.643678 0.666667 0
0.643678 0.714286 0
0.643678 0.761905 0
0.643678 0.809524 0
0.643678 0.857143 0
0.643678 0.904762 0
0.643678 0.952381 0
0.643678 1 0
0.689655 0 0
0.689655 0.047619 0
0.689655 0.0952381 0
0.689655 0.142857 0
0.689655 0.190476 0
0.689655 0.238095 0
0.689655 0.285714 0
0.689655 0.333333 0
0.689655 0.380952 0
0.689655 0.428571 0
0.689655 0.47619 0
0.689655 0.52381 0
0.689655 0.571429 0
0.689655 0.619048 0
0.689655 0.666667 0
0.689655 0.714286 0
0.689655 0.761905 0
0.689655 0.809524 0
0.689655 0.857143 0
0.689655 0.904762 0
0.689655 0.952381 0
0.689655 1 0
0.735632 0 0
0.735632 0.047619 0
0.735632 0.0952381 0
0.735632 0.142857 0
0.735632 0.190476 0
0.735632 0.238095 0
0.735632 0.285714 0
0.735632 0.333333 0
0.735632 0.380952 0
0.735632 0.428571 0
0.735632 0.47619 0
0.735632 0.52381 0
0.735632 0.571429 0
0.735632 0.619048 0
0.735632 0.666667 0
0.735632 0.714286 0
0.735632 0.761905 0
0.735632 0.809524 0
0.735632 0.857143 0
0.735632 0.904762 0
0.735632 0.952381 0
0.735632 1 0
0.781609 0 0
0.781609 0.047619 0
0.781609 0.0952381 0
0.781609 0.142857 0
0.781609 0.190476 0
0.781609 0.238095 0
0.781609 0.285714 0
0.781609 0.333333 0
0.781609 0.380952 0
0.781609 0.428571 0
0.781609 0.47619 0
0.781609 0.52381 0
0.781609 0.571429 0
0.781609 0.619048 0
0.781609 0.666667 0
0.781609 0.714286 0
0.781609 0.761905 0
0.781609 0.809524 0
0.781609 0.857143 0
0.781609 0.904762 0
0.781609 0.952381 0
0.781609 1 0
0.827586 0 0
0.827586 0.047619 0
0.827586 0.0952381 0
0.827586 0.142857 0
0.827586 0.190476 0
0.827586 0.238095 0
0.827586 0.285714 0
0.827586 0.333333 0
0.827586 0.380952 0
0.827586 0.428571 0
0.827586 0.47619 0
0.827586 0.52381 0
0.827586 0.571429 0
0.827586 0.619048 0
0.827586 0.666667 0
0.827586 0.714286 0
0.827586 0.761905 0
0.827586 0.809524 0
0.827586 0.857143 0
0.827586 0.904762 0
0.827586 0.952381 0
0.827586 1 0
0.873563 0 0
0.873563 0.047619 0
0.873563 0.0952381 0
0.873563 0.142857 0
0.873563 0.190476 0
0.873563 0.238095 0
0.873563 0.285714 0
0.873563 0.333333 0
0.873563 0.380952 0
0.873563 0.428571 0
0.873563 0.47619 0
0.873563 0.52381 0
0.873563 0.571429 0
0.873563 0.619048 0
0.873563 0.666667 0
0.873563 0.714286 0
0.873563 0.761905 0
0.873563 0.809524 0
0.873563 0.857143 0
0.873563 0.904762 0
0.873563 0.952381 0
0.873563 1 0
0.91954 0 0
0.91954 0.047619 0
0.91954 0.0952381 0
0.91954 0.142857 0
0.91954 0.190476 0
0.91954 0.238095 0
0.91954 0.285714 0
0.91954 0.333333 0
0.91954 0.380952 0
0.91954 0.428571 0
0.91954 0.47619 0
0.91954 0.52381 0
0.91954 0.571429 0
0.91954 0.619048 0
0.91954 0.666667 0
0.91954 0.714286 0
0.91954 0.761905 0
0.91954 0.809524 0
0.91954 0.857143 0
0.91954 0.904762 0
0.91954 0.952381 0
0.91954 1 0
0.965517 0 0
0.965517 0.047619 0
0.965517 0.0952381 0
0.965517 0.142857 0
0.965517 0.190476 0
0.965517 0.238095 0
0.965517 0.285714 0
0.965517 0.333333 0
0.965517 0.380952 0
0.965517 0.428571 0
0.965517 0.47619 0
0.965517 0.52381 0
0.965517 0.571429 0
0.965517 0.619048 0
0.965517 0.666667 0
0.965517 0.714286 0
0.965517 0.761905 0
0.965517 0.809524 0
0.965517 0.857143 0
0.965517 0.904762 0
0.965517 0.952381 0
0.965517 1 0
1.01149 0 0
1.01149 0.047619 0
1.01149 0.0952381 0
1.01149 0.142857 0
1.01149 0.190476 0
1.01149 0.238095 0
1.01149 0.285714 0
1.01149 0.333333 0
1.01149 0.380952 0
1.01149 0.428571 0
1.01149 0.47619 0
1.01149 0.52381 0
1.01149 0.571429 0
1.01149 0.619048 0
1.01149 0.666667 0
1.01149 0.714286 0
1.01149 0.761905 0
1.01149 0.809524 0
1.01149 0.857143 0
1.01149 0.904762 0
1.01149 0.952381 0
1.01149 1 0
1.05747 0 0
1.05747 0.047619 0
1.05747 0.0952381 0
1.05747 0.142857 0
1.05747 0.190476 0
1.05747 0.238095 0
1.05747 0.285714 0
1.05747 0.333333 0
1.05747 0.380952 0
1.05747 0.428571 0
1.05747 0.47619 0
1.05747 0.52381 0
1.05747 0.571429 0
1.05747 0.619048 0
1.05747 0.666667 0
1.05747 0.714286 0
1.05747 0.761905 0
1.05747 0.809524 0
1.05747 0.857143 0
1.05747 0.904762 0
1.05747 0.952381 0
1.05747 1 0
1.10345 0 0
1.10345 0.047619 0
1.10345 0.0952381 0
1.10345 0.142857 0
1.10345 0.190476 0
1.10345 0.238095 0
1.10345 0.285714 0
1.10345 0.333333 0
1.10345 0.380952 0
1.10345 0.428571 0
1.10345 0.47619 0
1.10345 0.52381 0
1.10345 0.571429 0
[...]
POINT_DATA 1913
VECTORS velocity[m/s] double
-0 0.209464 0
0 0.209464 0
0 0.2094 0
0 0.180993 0
0 0.150667 0
0 0.121913 0
0 0.0948954 0
0 0.0692765 0
0 0.044638 0
0 0.0205654 0
0 -0.00334108 0
0 -0.0274822 0
0 -0.0522861 0
0 -0.0782442 0
0 -0.105958 0
0 -0.136206 0
0 -0.170033 0
0 -0.208863 0
0 -0.254199 0
0 -0.302685 0
0 -0.309853 0
-0.872481 0.185236 0
0.872481 0.00163378 0
1.07478 0.185236 0
1.10215 0.208836 0
1.104 0.184448 0
1.10248 0.153053 0
1.10081 0.123265 0
1.09946 0.0956931 0
1.09851 0.069764 0
1.09796 0.0449151 0
1.0978 0.0206733 0
1.09803 -0.00338551 0
1.09867 -0.0276742 0
1.09978 -0.0526296 0
1.10148 -0.0787543 0
1.10392 -0.106674 0
1.10738 -0.137228 0
1.11221 -0.171601 0
1.11849 -0.211184 0
1.12153 -0.255009 0
1.08164 -0.28627 0
0.77555 -0.235217 0
-0.69521 0.144679 0
0.69521 0.00129611 0
1.052 0.144679 0
1.12569 0.189915 0
1.13432 0.178687 0
1.13124 0.151245 0
1.12743 0.122301 0
1.12449 0.0949851 0
1.1225 0.0692681 0
1.12137 0.0446367 0
1.12103 0.0206136 0
1.12148 -0.00321823 0
1.12276 -0.0272538 0
1.12501 -0.051904 0
1.12844 -0.0776359 0
1.13343 -0.105025 0
1.14057 -0.134812 0
1.15043 -0.167795 0
1.16081 -0.203624 0
1.15172 -0.235295 0
1.03235 -0.234739 0
0.548444 -0.146318 0
-0.556772 0.105545 0
0.556772 0.000944867 0
1.00832 0.105545 0
1.13654 0.161762 0
1.16081 0.164713 0
1.15919 0.144629 0
1.1538 0.118673 0
1.14932 0.0926906 0
1.14628 0.0677983 0
1.14456 0.0438235 0
1.14404 0.0203919 0
1.14469 -0.00285937 0
1.14656 -0.0262746 0
1.14985 -0.0502058 0
1.15488 -0.0750408 0
1.16219 -0.101226 0
1.17241 -0.129209 0
1.18502 -0.158918 0
1.19139 -0.187505 0
1.15118 -0.203051 0
0.946977 -0.176793 0
0.407172 -0.0836838 0
-0.455779 0.0738509 0
0.455779 0.00066051 0
0.954043 0.0738509 0
1.13369 0.132252 0
1.1802 0.146285 0
1.18425 0.134337 0
1.17889 0.112701 0
1.17336 0.0889606 0
1.16943 0.0654542 0
1.16719 0.0425324 0
1.16649 0.020021 0
1.1673 -0.00234312 0
1.16967 -0.0248266 0
1.17383 -0.0476982 0
1.18016 -0.0712363 0
1.1892 -0.095702 0
1.2011 -0.12113 0
1.21262 -0.146422 0
1.2064 -0.166606 0
1.12583 -0.16787 0
0.857079 -0.128057 0
0.326374 -0.04784 0
-0.385113 0.050491 0
0.385113 0.000451217 0
0.897656 0.050491 0
1.12014 0.105575 0
1.19174 0.126735 0
1.20514 0.122043 0
1.20181 0.105125 0
1.19605 0.0841577 0
1.19156 0.0624374 0
1.18892 0.040869 0
1.18809 0.0195314 0
1.189 -0.00170956 0
1.19175 -0.0230272 0
1.19656 -0.0445962 0
1.20379 -0.0665728 0
1.21376 -0.0890114 0
1.22552 -0.11151 0
1.23211 -0.132055 0
1.20762 -0.144409 0
1.08739 -0.135461 0
0.779628 -0.0918245 0
0.280184 -0.0286751 0
-0.336799 0.0343602 0
0.336799 0.000306843 0
0.844472 0.0343602 0
1.09971 0.0833447 0
1.19627 0.108189 0
1.22148 0.109213 0
1.22205 0.0967532 0
1.21702 0.078722 0
1.21239 0.058997 0
1.20953 0.0389649 0
1.20859 0.0189648 0
1.20959 -0.000998455 0
1.21258 -0.0210019 0
1.21778 -0.0411275 0
1.22545 -0.0614126 0
1.23548 -0.0817107 0
1.24536 -0.101223 0
1.24404 -0.117267 0
1.19898 -0.123192 0
1.04526 -0.108066 0
0.718656 -0.0662886 0
0.252498 -0.0183202 0
-0.30392 0.0237131 0
0.30392 0.000211614 0
0.797177 0.0237131 0
1.07572 0.0657064 0
1.19528 0.0917079 0
1.23351 0.0968501 0
1.23946 0.0882581 0
1.23607 0.0730608 0
1.23173 0.055375 0
1.22884 0.0369514 0
1.22787 0.0183653 0
1.2289 -0.000245387 0
1.23201 -0.0188679 0
1.23736 -0.037501 0
1.24505 -0.056076 0
1.25432 -0.0742673 0
1.26085 -0.0909538 0
1.24976 -0.103048 0
1.18437 -0.104123 0
1.00492 -0.0859532 0
0.672342 -0.0486028 0
0.23481 -0.0124213 0
-0.28123 0.0168599 0
0.28123 0.000150352 0
0.756632 0.0168599 0
1.05062 0.0521155 0
1.19032 0.077633 0
1.2418 0.0855203 0
1.25414 0.0801053 0
1.25315 0.0674896 0
1.24952 0.0517708 0
1.24678 0.0349407 0
1.24584 0.0177715 0
1.24688 0.000520011 0
1.25 -0.0167231 0
1.2553 -0.0338874 0
1.26261 -0.050814 0
1.27043 -0.0670263 0
1.27252 -0.081162 0
1.2508 -0.0899608 0
1.16683 -0.0876188 0
0.968858 -0.0685359 0
0.637409 -0.0363303 0
0.222817 -0.00883275 0
-0.265097 0.0124674 0
0.265097 0.000111107 0
0.722592 0.0124674 0
1.02598 0.041803 0
1.1827 0.0658986 0
1.24703 0.0754644 0
1.26632 0.0725671 0
1.26832 0.0622197 0
1.26577 0.048327 0
1.26336 0.0330157 0
1.2625 0.0172122 0
1.26353 0.00127433 0
1.26657 -0.0146427 0
1.27164 -0.0304125 0
1.27827 -0.0458027 0
1.28408 -0.0602134 0
1.28102 -0.0721184 0
1.24854 -0.0782643 0
1.1484 -0.0736677 0
0.937763 -0.0549804 0
0.61086 -0.0277144 0
0.214289 -0.00651876 0
-0.253167 0.00960869 0
0.253167 8.55799e-05 0
0.694268 0.00960868 0
1.00271 0.0340181 0
1.17347 0.0562493 0
1.24983 0.0667182 0
1.27631 0.0657686 0
1.28174 0.0573701 0
1.28055 0.0451313 0
1.27862 0.0312294 0
1.27788 0.016705 0
1.2789 0.00199988 0
1.2818 -0.0126785 0
1.2865 -0.0271597 0
1.29218 -0.0411511 0
1.29557 -0.0539561 0
1.28695 -0.063951 0
1.2441 -0.0680168 0
1.13036 -0.0620485 0
0.911438 -0.0444783 0
0.590395 -0.0215701 0
0.207996 -0.00495962 0
-0.243973 0.00769103 0
0.243973 6.84666e-05 0
0.670701 0.00769102 0
0.98125 0.0281278 0
1.16336 0.048368 0
1.25075 0.0592043 0
1.28442 0.0597358 0
1.29355 0.0529899 0
1.29398 0.0422258 0
1.29264 0.0296081 0
1.29208 0.0162576 0
1.29307 0.00268389 0
1.29578 -0.0108625 0
1.30001 -0.0241763 0
1.30454 -0.0369152 0
1.30522 -0.0483089 0
1.29088 -0.0566913 0
1.23834 -0.0591605 0
1.1134 -0.0524597 0
0.88932 -0.036342 0
0.574358 -0.017116 0
0.203207 -0.00387566 0
-0.236613 0.00635502 0
0.236613 5.65512e-05 0
0.650969 0.006355 0
0.961708 0.0236377 0
1.1529 0.0419435 0
1.25024 0.052793 0
1.29093 0.0544358 0
1.30395 0.0490811 0
1.30616 0.0396198 0
1.30553 0.0281586 0
1.30519 0.0158697 0
1.30615 0.00331762 0
1.30864 -0.00921105 0
1.31231 -0.0214819 0
1.31555 -0.0331118 0
1.31332 -0.0432762 0
1.29326 -0.0503103 0
1.23187 -0.051577 0
1.09784 -0.0445876 0
0.870757 -0.0300212 0
0.561574 -0.0138363 0
0.199466 -0.00310463 0
-0.230532 0.00538779 0
0.230533 4.79294e-05 0
0.634283 0.00538777 0
0.944034 0.0201784 0
1.14242 0.0366995 0
1.24865 0.0473386 0
1.2961 0.049805 0
1.31308 0.0456173 0
1.31723 0.0373009 0
1.3174 0.0268736 0
1.31731 0.0155356 0
1.31825 0.00389568 0
1.32049 -0.00772848 0
1.32354 -0.0190768 0
1.32536 -0.0297316 0
1.32011 -0.038831 0
1.29449 -0.0447453 0
1.22512 -0.045123 0
1.08377 -0.0381412 0
0.85513 -0.0250888 0
0.551213 -0.0113868 0
0.196468 -0.00254635 0
-0.225377 0.00466302 0
0.225377 4.1472e-05 0
0.620002 0.00466301 0
0.928083 0.0174797 0
1.13215 0.032403 0
1.24627 0.042699 0
1.30015 0.0457671 0
1.32111 0.042557 0
1.32729 0.0352447 0
1.32835 0.0257381 0
1.32855 0.015247 0
1.32947 0.00441529 0
1.33144 -0.00641112 0
1.33383 -0.0169483 0
1.33415 -0.0267491 0
1.32582 -0.0349286 0
1.29485 -0.0399166 0
1.21838 -0.0396502 0
1.07117 -0.0328643 0
0.841901 -0.0212181 0
0.542678 -0.00953359 0
0.19401 -0.00213601 0
-0.220915 0.00410394 0
0.220916 3.64925e-05 0
0.607628 0.00410392 0
0.913674 0.0153458 0
1.12221 0.0288635 0
1.24331 0.0387446 0
1.30325 0.0422448 0
1.32817 0.0398532 0
1.33647 0.0334207 0
1.33848 0.0247331 0
1.33901 0.0149942 0
1.33992 0.00487578 0
1.34162 -0.00525004 0
1.34329 -0.0150763 0
1.34204 -0.02413 0
1.33064 -0.0315156 0
1.2946 -0.0357398 0
1.21183 -0.0350179 0
1.05993 -0.0285399 0
0.83062 -0.0181612 0
0.535535 -0.00811477 0
0.191948 -0.00183033 0
-0.216989 0.00366203 0
0.216989 3.25578e-05 0
0.596774 0.00366201 0
0.900623 0.0136351 0
1.11267 0.0259278 0
1.23993 0.0353622 0
1.30556 0.0391648 0
1.33438 0.0374585 0
1.34486 0.0317977 0
1.34788 0.0238387 0
1.34878 0.0147677 0
1.3497 0.00527811 0
1.35111 -0.00423326 0
1.35203 -0.0134365 0
1.34918 -0.0218363 0
1.33471 -0.0285365 0
1.2939 -0.032132 0
1.20557 -0.0310978 0
1.0499 -0.0249872 0
0.82092 -0.0157302 0
0.529468 -0.00701616 0
0.190181 -0.00159962 0
-0.213485 0.00330532 0
0.213485 2.93825e-05 0
0.587145 0.0033053 0
0.888755 0.0122442 0
1.10356 0.0234739 0
1.23626 0.0324552 0
1.3072 0.0364613 0
1.33985 0.035329 0
1.35255 0.0303454 0
1.35664 0.0230358 0
1.35794 0.014559 0
1.35889 0.00562445 0
1.35999 -0.00334738 0
1.36014 -0.0120037 0
1.35564 -0.0198299 0
1.33819 -0.0259373 0
1.2929 -0.0290156 0
1.19967 -0.027777 0
1.04097 -0.022058 0
0.812507 -0.0137822 0
0.524238 -0.00615598 0
0.188637 -0.00142318 0
-0.210322 0.00301192 0
0.210323 2.67712e-05 0
0.578515 0.00301189 0
0.877912 0.0110977 0
1.09489 0.021405 0
1.23239 0.0299425 0
1.3083 0.0340768 0
1.34466 0.0334249 0
1.3596 0.0290367 0
1.36482 0.0223073 0
1.36656 0.0143609 0
1.36755 0.00591788 0
1.36835 -0.00257857 0
1.3677 -0.010753 0
1.36154 -0.0180742 0
1.34116 -0.0236677 0
1.29171 -0.0263208 0
1.19415 -0.0249578 0
1.03298 -0.019632 0
0.805144 -0.0122086 0
0.519669 -0.00547478 0
0.187263 -0.0012863 0
-0.20744 0.00276637 0
0.207441 2.45863e-05 0
0.570708 0.00276634 0
0.867961 0.0101394 0
1.08665 0.019645 0
1.2284 0.0277565 0
1.30893 0.0319617 0
1.3489 0.031712 0
1.3661 0.0278481 0
1.37249 0.0216386 0
1.37472 0.0141675 0
1.37575 0.00616207 0
1.37624 -0.00191334 0
1.37477 -0.00966091 0
1.36694 -0.0165355 0
1.34372 -0.0216822 0
1.29039 -0.0239854 0
1.18901 -0.0225568 0
1.02581 -0.0176116 0
0.798643 -0.0109263 0
0.515625 -0.0049289 0
0.186021 -0.00117844 0
-0.204794 0.00255753 0
0.204794 2.27284e-05 0
0.56359 0.0025575 0
0.858783 0.0093279 0
1.07881 0.0181336 0
1.22434 0.0258418 0
1.30917 0.0300743 0
1.35263 0.0301609 0
1.3721 0.0267595 0
1.37971 0.0210173 0
1.38245 0.0139746 0
1.38355 0.00636106 0
1.38372 -0.00133894 0
1.38141 -0.00870602 0
1.37191 -0.0151836 0
1.34595 -0.0199405 0
1.28901 -0.0219554 0
1.18424 -0.0205037 0
1.01936 -0.0159186 0
0.792852 -0.00987164 0
0.512005 -0.00448595 0
0.184884 -0.00109197 0
-0.202347 0.00237727 0
0.202347 2.1125e-05 0
0.557053 0.00237724 0
0.850282 0.00863185 0
1.07137 0.0168235 0
1.22025 0.0241527 0
1.30908 0.0283796 0
1.35591 0.028747 0
1.37764 0.0257542 0
1.38651 0.0204338 0
1.3898 0.0137791 0
1.39098 0.0065191 0
1.39084 -0.000843621 0
1.38766 -0.0078691 0
1.37651 -0.0139918 0
1.34789 -0.0184071 0
1.28761 -0.0201842 0
1.17981 -0.0187396 0
1.01352 -0.0144901 0
0.787653 -0.00899558 0
0.508728 -0.00412172 0
0.18383 -0.00102132 0
-0.200072 0.00221956 0
0.200073 1.97224e-05 0
0.551014 0.00221953 0
0.842373 0.00802764 0
1.0643 0.0156774 0
1.21617 0.022652 0
1.30873 0.0268486 0
1.3588 0.0274498 0
1.38278 0.0248189 0
1.39293 0.0198802 0
1.39681 0.0135791 0
1.39809 0.00664045 0
1.39762 -0.000416699 0
1.39357 -0.00713316 0
1.38077 -0.0129368 0
1.34961 -0.0170516 0
1.28621 -0.0186321 0
1.17571 -0.0172157 0
1.00821 -0.0132755 0
0.782947 -0.00826021 0
0.505735 -0.00381803 0
0.182844 -0.000962419 0
-0.197949 0.00207992 0
0.197949 1.84806e-05 0
0.545407 0.00207989 0
0.834987 0.00749732 0
1.05756 0.0146657 0
1.21212 0.0213095 0
1.30815 0.025457 0
1.36134 0.0262527 0
1.38755 0.0239425 0
1.39902 0.0193507 0
1.40351 0.0133735 0
1.40491 0.00672932 0
1.40411 -4.86152e-05 0
1.39918 -0.00648336 0
1.38474 -0.0119983 0
1.35113 -0.0158476 0
1.28485 -0.0172651 0
1.1719 -0.0158911 0
1.00337 -0.0122344 0
0.778658 -0.00763616 0
0.502978 -0.00356112 0
0.181915 -0.000912285 0
-0.195959 0.00195498 0
0.195959 1.73697e-05 0
0.540176 0.00195494 0
0.828066 0.00702714 0
1.05115 0.0137652 0
1.20811 0.0201005 0
1.30738 0.0241851 0
1.36358 0.0251417 0
1.39198 0.0231165 0
1.40479 0.0188409 0
1.40992 0.0131622 0
1.41145 0.00678972 0
1.41032 0.000269113 0
1.4045 -0.00590686 0
1.38846 -0.0111592 0
1.3525 -0.0147727 0
1.28352 -0.0160548 0
1.16837 -0.0147324 0
0.998931 -0.0113344 0
0.774724 -0.00710062 0
0.500421 -0.0033406 0
0.181035 -0.000868721 0
-0.194088 0.00184219 0
0.194089 1.63669e-05 0
0.535279 0.00184215 0
0.821561 0.00660649 0
1.04503 0.0129576 0
1.20417 0.0190048 0
1.30646 0.0230165 0
1.36553 0.0241057 0
1.39611 0.022334 0
1.41027 0.0183475 0
1.41608 0.0129453 0
1.41775 0.00682549 0
1.41628 0.000543951 0
1.40957 -0.00539258 0
1.39195 -0.0104047 0
1.35374 -0.0138077 0
1.28224 -0.0149769 0
1.16509 -0.0137118 0
0.994844 -0.0105495 0
0.771094 -0.00663576 0
0.498034 -0.00314852 0
0.180196 -0.000830113 0
-0.192326 0.0017396 0
0.192327 1.54549e-05 0
0.53068 0.00173956 0
0.815429 0.00622714 0
1.03919 0.012228 0
1.2003 0.0180063 0
1.30541 0.0219377 0
1.36724 0.0231355 0
1.39996 0.0215897 0
1.41549 0.0178684 0
1.42198 0.0127234 0
1.42381 0.00684017 0
1.42201 0.000782428 0
1.41441 -0.00493106 0
1.39523 -0.00972219 0
1.35487 -0.0129367 0
1.28102 -0.0140113 0
1.16204 -0.0128064 0
0.991065 -0.00985878 0
0.767727 -0.00622766 0
0.495796 -0.00297885 0
0.179395 -0.000795274 0
-0.190662 0.0016457 0
0.190662 1.46202e-05 0
0.526347 0.00164566 0
0.809635 0.00588267 0
1.03361 0.0115647 0
1.1965 0.0170914 0
1.30425 0.0209375 0
1.36873 0.0222236 0
1.40355 0.0208794 0
1.42046 0.017402 0
1.42767 0.0124975 0
1.42966 0.00683703 0
1.42753 0.000990218 0
1.41904 -0.0045142 0
1.39834 -0.00910102 0
1.35591 -0.0121457 0
1.27986 -0.0131409 0
1.15919 -0.0119975 0
0.98756 -0.00924551 0
0.764591 -0.00586541 0
0.493688 -0.00282695 0
0.178627 -0.000763331 0
-0.189087 0.00155931 0
0.189088 1.38523e-05 0
0.522257 0.00155927 0
0.804149 0.00556797 0
1.02828 0.0109584 0
1.19279 0.0162492 0
1.30301 0.0200067 0
1.37003 0.0213638 0
1.40691 0.0201999 0
1.42519 0.0169475 0
1.43313 0.0122687 0
1.43531 0.00681903 0
1.43285 0.00117223 0
1.42347 -0.00413514 0
1.40128 -0.00853219 0
1.35687 -0.0114232 0
1.27876 -0.0123515 0
1.15654 -0.0112694 0
0.984296 -0.00869614 0
0.761658 -0.00554039 0
0.491696 -0.00268925 0
0.177891 -0.000733637 0
-0.187596 0.0014795 0
0.187596 1.31429e-05 0
0.518386 0.00147946 0
0.798945 0.00527898 0
1.02317 0.0104014 0
1.18916 0.0154708 0
1.3017 0.0191377 0
1.37116 0.0205511 0
1.41005 0.0195486 0
1.42971 0.0165042 0
1.43839 0.0120379 0
1.44076 0.00678882 0
1.43797 0.00133267 0
1.42771 -0.00378807 0
1.40407 -0.00800807 0
1.35777 -0.0107595 0
1.27771 -0.0116311 0
1.15405 -0.0106095 0
0.98125 -0.00819975 0
0.758905 -0.00524581 0
0.489808 -0.002563 0
0.177183 -0.000705719 0
-0.18618 0.0014055 0
0.186181 1.24852e-05 0
0.514718 0.00140546 0
0.794 0.00501244 0
1.01828 0.00988735 0
1.18562 0.0147485 0
1.30034 0.0183238 0
1.37213 0.0197811 0
1.41299 0.0189233 0
1.43402 0.0160718 0
1.44346 0.0118062 0
1.44603 0.00674875 0
1.44291 0.00147514 0
1.43179 -0.00346806 0
1.40673 -0.00752223 0
1.35861 -0.0101463 0
1.27673 -0.0109696 0
1.15173 -0.010007 0
0.978398 -0.00774751 0
0.756315 -0.00497627 0
0.488015 -0.00244608 0
0.176501 -0.00067922 0
-0.184836 0.00133669 0
0.184837 1.18737e-05 0
0.511236 0.00133665 0
0.789293 0.00476565 0
1.01358 0.0094112 0
1.18217 0.0140761 0
1.29893 0.0175596 0
1.37295 0.0190502 0
1.41574 0.0183224 0
1.43814 0.01565 0
1.44834 0.0115747 0
1.45112 0.00670084 0
1.44769 0.00160268 0
1.4357 -0.003171 0
1.40926 -0.00706926 0
1.3594 -0.0095765 0
1.2758 -0.0103587 0
1.14954 -0.00945321 0
0.975723 -0.00733222 0
0.753872 -0.00472747 0
0.48631 -0.0023368 0
0.175846 -0.000653878 0
-0.183557 0.00127256 0
0.183558 1.13038e-05 0
0.507925 0.00127252 0
0.784808 0.00453639 0
1.00908 0.00896861 0
1.17881 0.0134483 0
1.29749 0.0168403 0
1.37366 0.0183553 0
1.41832 0.0177444 0
1.44208 0.0152389 0
1.45305 0.0113442 0
1.45604 0.00664682 0
1.4523 0.00171785 0
1.43947 -0.00289344 0
1.41168 -0.00664461 0
1.36016 -0.00904431 0
1.27492 -0.00979121 0
1.1475 -0.00894093 0
0.973208 -0.00694804 0
0.751564 -0.00449597 0
0.484685 -0.00223387 0
0.175215 -0.00062949 0
-0.18234 0.00121265 0
0.182341 1.07714e-05 0
0.504774 0.00121261 0
0.780529 0.00432278 0
1.00475 0.00855593 0
1.17553 0.0128604 0
1.29603 0.0161619 0
1.37425 0.0176935 0
1.42074 0.017188 0
1.44584 0.0148382 0
1.45759 0.0111155 0
1.4608 0.00658813 0
1.45675 0.00182273 0
1.44309 -0.00263254 0
1.414 -0.00624448 0
1.36088 -0.00854475 0
1.2741 -0.00926123 0
1.14557 -0.0084641 0
0.970841 -0.00659019 0
0.749381 -0.00427899 0
0.483136 -0.00213623 0
0.174607 -0.000605901 0
-0.18118 0.00115658 0
0.181181 1.02732e-05 0
0.501772 0.00115654 0
0.776442 0.00412321 0
1.0006 0.00817004 0
1.17234 0.0123084 0
1.29455 0.0155205 0
1.37474 0.0170624 0
1.42301 0.016652 0
1.44943 0.0144477 0
1.46196 0.0108891 0
1.4654 0.00652592 0
1.46105 0.00191904 0
1.44658 -0.00238596 0
1.41622 -0.00586571 0
1.36157 -0.00807367 0
1.27333 -0.00876376 0
1.14376 -0.00801773 0
0.96861 -0.00625473 0
0.747312 -0.00407428 0
0.481659 -0.00204305 0
0.174023 -0.00058299 0
-0.180074 0.00110401 0
0.180074 9.8061e-06 0
0.498908 0.00110398 0
0.772535 0.0039363 0
0.996603 0.00780822 0
1.16924 0.0117889 0
1.29306 0.014913 0
1.37513 0.0164596 0
1.42514 0.016135 0
1.45287 0.0140672 0
1.46617 0.0106653 0
1.46985 0.00646104 0
1.46521 0.00200809 0
1.44994 -0.00215182 0
1.41835 -0.00550568 0
1.36224 -0.00762756 0
1.27261 -0.00829464 0
1.14206 -0.00759766 0
0.966505 -0.00593844 0
0.745351 -0.00388001 0
0.48025 -0.00195366 0
0.17346 -0.000560659 0
-0.179018 0.00105464 0
0.179018 9.3674e-06 0
0.496173 0.00105461 0
0.768797 0.00376082 0
0.99276 0.00746806 0
1.16623 0.0112988 0
1.29157 0.0143364 0
1.37545 0.0158829 0
1.42714 0.015636 0
1.45615 0.0136962 0
1.47023 0.0104445 0
1.47415 0.00639411 0
1.46923 0.00209088 0
1.45317 -0.00192865 0
1.4204 -0.00516227 0
1.36288 -0.00720354 0
1.27194 -0.00785038 0
1.14046 -0.00720044 0
0.964518 -0.00563869 0
0.743492 -0.0036947 0
0.478905 -0.00186752 0
0.172919 -0.000538826 0
-0.178009 0.00100819 0
0.17801 8.95464e-06 0
0.493561 0.00100816 0
0.765218 0.00359566 0
0.989062 0.00714743 0
1.16329 0.0108351 0
1.29007 0.0137878 0
1.37568 0.0153301 0
1.42901 0.0151536 0
1.45929 0.0133342 0
1.47414 0.0102264 0
1.47831 0.00632546 0
1.47311 0.00216809 0
1.4563 -0.00171535 0
1.42237 -0.0048338 0
1.36351 -0.00679921 0
1.27131 -0.00742809 0
1.13895 -0.00682321 0
0.962641 -0.00535329 0
0.741728 -0.00351713 0
0.477622 -0.00178418 0
0.172399 -0.000517426 0
-0.177044 0.000964397 0
0.177045 8.56557e-06 0
0.491063 0.000964369 0
0.761789 0.00343982 0
0.985502 0.00684438 0
1.16044 0.0103953 0
1.28859 0.0132646 0
1.37585 0.0147992 0
1.43077 0.0146864 0
1.46229 0.0129805 0
1.47791 0.0100109 0
1.48232 0.00625518 0
1.47686 0.0022401 0
1.45931 -0.00151115 0
1.42427 -0.00451893 0
1.36411 -0.00641264 0
1.27073 -0.00702538 0
1.13753 -0.00646363 0
0.960868 -0.00508047 0
0.740055 -0.00334633 0
0.4764 -0.0017033 0
0.1719 -0.000496405 0
-0.176122 0.000923036 0
0.176123 8.19809e-06 0
0.488673 0.000923013 0
0.758502 0.00329241 0
0.982073 0.0065571 0
1.15767 0.00997695 0
1.2871 0.0127643 0
1.37596 0.014288 0
1.43242 0.0142331 0
1.46516 0.0126342 0
1.48153 0.00979763 0
1.4862 0.00618311 0
1.48048 0.00230704 0
1.46221 -0.00131557 0
1.4261 -0.00421672 0
1.36471 -0.00604231 0
1.27019 -0.00664031 0
1.1362 -0.00611979 0
0.959194 -0.0048188 0
0.738469 -0.00318152 0
0.475235 -0.00162459 0
0.171421 -0.000475719 0
-0.175239 0.000883887 0
0.17524 7.85027e-06 0
0.486386 0.000883869 0
0.75535 0.00315255 0
0.978772 0.00628395 0
1.15498 0.00957779 0
1.28563 0.0122845 0
1.37602 0.0137946 0
1.43396 0.013792 0
1.4679 0.0122943 0
1.48503 0.00958578 0
1.48994 0.00610887 0
1.48398 0.00236877 0
1.46501 -0.00112839 0
1.42786 -0.00392648 0
1.36528 -0.00568702 0
1.26969 -0.00627136 0
1.13494 -0.00579018 0
0.957614 -0.00456716 0
0.736966 -0.0030221 0
0.474126 -0.00154786 0
0.170962 -0.000455338 0
-0.174394 0.000846742 0
0.174395 7.52028e-06 0
0.484196 0.00084673 0
0.752327 0.00301948 0
0.975592 0.00602335 0
1.15237 0.00919562 0
1.28418 0.0118228 0
1.37602 0.0133166 0
1.43541 0.0133616 0
1.47052 0.0119595 0
1.48838 0.00937455 0
1.49355 0.00603184 0
1.48735 0.00242493 0
1.46772 -0.000949685 0
1.42956 -0.00364784 0
1.36585 -0.00534593 0
1.26922 -0.00591734 0
1.13376 -0.0054736 0
0.956123 -0.00432467 0
0.735543 -0.00286761 0
0.473071 -0.00147294 0
0.170523 -0.000435241 0
-0.173584 0.000811408 0
0.173585 7.20637e-06 0
0.482098 0.000811403 0
0.749427 0.00289242 0
0.972529 0.00577381 0
1.14983 0.00882833 0
1.28273 0.0113768 0
1.37598 0.0128521 0
1.43676 0.0129399 0
1.47301 0.0116285 0
1.49161 0.00916287 0
1.49704 0.00595121 0
1.49061 0.00247494 0
1.47032 -0.000779709 0
1.4312 -0.00338066 0
1.3664 -0.00501844 0
1.26879 -0.00557736 0
1.13265 -0.00516915 0
0.954716 -0.00409069 0
0.734197 -0.00271776 0
0.47207 -0.00139976 0
0.170103 -0.000415418 0
-0.172808 0.000777695 0
0.172809 6.90689e-06 0
0.480089 0.000777698 0
0.746646 0.00277065 0
0.96958 0.00553388 0
1.14737 0.00847387 0
1.28131 0.0109444 0
1.37589 0.0123987 0
1.43803 0.0125251 0
1.47539 0.0112998 0