# vtk DataFile Version 3.0
vtk output
ASCII
DATASET UNSTRUCTURED_GRID
POINTS 1913 double
0.045977 0 0
0.045977 0.0952381 0
0.045977 0.142857 0
0.045977 0.190476 0
0.045977 0.238095 0
0.045977 0.285714 0
0.045977 0.333333 0
0.045977 0.380952 0
0.045977 0.428571 0
0.045977 0.47619 0
0.045977 0.52381 0
0.045977 0.571429 0
0.045977 0.619048 0
0.045977 0.666667 0
0.045977 0.714286 0
0.045977 0.761905 0
0.045977 0.809524 0
0.045977 0.857143 0
0.045977 0.904762 0
0.045977 0.952381 0
0.045977 1 0
0.091954 0 0
0.091954 0.047619 0
0.091954 0.0952381 0
0.091954 0.142857 0
0.091954 0.190476 0
0.091954 0.238095 0
0.091954 0.285714 0
0.091954 0.333333 0
0.091954 0.380952 0
0.091954 0.428571 0
0.091954 0.47619 0
0.091954 0.52381 0
0.091954 0.571429 0
0.091954 0.619048 0
0.091954 0.666667 0
0.091954 0.714286 0
0.091954 0.761905 0
0.091954 0.809524 0
0.091954 0.857143 0
0.091954 0.904762 0
0.091954 0.952381 0
0.091954 1 0
0.137931 0 0
0.137931 0.047619 0
0.137931 0.0952381 0
0.137931 0.142857 0
0.137931 0.190476 0
0.137931 0.238095 0
0.137931 0.285714 0
0.137931 0.333333 0
0.137931 0.380952 0
0.137931 0.428571 0
0.137931 0.47619 0
0.137931 0.52381 0
0.137931 0.571429 0
0.137931 0.619048 0
0.137931 0.666667 0
0.137931 0.714286 0
0.137931 0.761905 0
0.137931 0.809524 0
0.137931 0.857143 0
0.137931 0.904762 0
0.137931 0.952381 0
0.137931 1 0
0.183908 0 0
0.183908 0.047619 0
0.183908 0.0952381 0
0.183908 0.142857 0
0.183908 0.190476 0
0.183908 0.238095 0
0.183908 0.285714 0
0.183908 0.333333 0
0.183908 0.380952 0
0.183908 0.428571 0
0.183908 0.47619 0
0.183908 0.52381 0
0.183908 0.571429 0
0.183908 0.619048 0
0.183908 0.666667 0
0.183908 0.714286 0
0.183908 0.761905 0
0.183908 0.809524 0
0.183908 0.857143 0
0.183908 0.904762 0
0.183908 0.952381 0
0.183908 1 0
0.229885 0 0
0.229885 0.047619 0
0.229885 0.0952381 0
0.229885 0.142857 0
0.229885 0.190476 0
0.229885 0.238095 0
0.229885 0.285714 0
0.229885 0.333333 0
0.229885 0.380952 0
0.229885 0.428571 0
0.229885 0.47619 0
0.229885 0.52381 0
0.229885 0.571429 0
0.229885 0.619048 0
0.229885 0.666667 0
0.229885 0.714286 0
0.229885 0.761905 0
0.229885 0.809524 0
0.229885 0.857143 0
0.229885 0.904762 0
0.229885 0.952381 0
0.229885 1 0
0.275862 0 0
0.275862 0.047619 0
0.275862 0.0952381 0
0.275862 0.142857 0
0.275862 0.190476 0
0.275862 0.238095 0
0.275862 0.285714 0
0.275862 0.333333 0
0.275862 0.380952 0
0.275862 0.428571 0
0.275862 0.47619 0
0.275862 0.52381 0
0.275862 0.571429 0
0.275862 0.619048 0
0.275862 0.666667 0
0.275862 0.714286 0
0.275862 0.761905 0
0.275862 0.809524 0
0.275862 0.857143 0
0.275862 0.904762 0
0.275862 0.952381 0
0.275862 1 0
0.321839 0 0
0.321839 0.047619 0
0.321839 0.0952381 0
0.321839 0.142857 0
0.321839 0.190476 0
0.321839 0.238095 0
0.321839 0.285714 0
0.321839 0.333333 0
0.321839 0.380952 0
0.321839 0.428571 0
0.321839 0.47619 0
0.321839 0.52381 0
0.321839 0.571429 0
0.321839 0.619048 0
0.321839 0.666667 0
0.321839 0.714286 0
0.321839 0.761905 0
0.321839 0.809524 0
0.321839 0.857143 0
0.321839 0.904762 0
0.321839 0.952381 0
0.321839 1 0
0.367816 0 0
0.367816 0.047619 0
0.367816 0.0952381 0
0.367816 0.142857 0
0.367816 0.190476 0
0.367816 0.238095 0
0.367816 0.285714 0
0.367816 0.333333 0
0.367816 0.380952 0
0.367816 0.428571 0
0.367816 0.47619 0
0.367816 0.52381 0
0.367816 0.571429 0
0.367816 0.619048 0
0.367816 0.666667 0
0.367816 0.714286 0
0.367816 0.761905 0
0.367816 0.809524 0
0.367816 0.857143 0
0.367816 0.904762 0
0.367816 0.952381 0
0.367816 1 0
0.413793 0 0
0.413793 0.047619 0
0.413793 0.0952381 0
0.413793 0.142857 0
0.413793 0.190476 0
0.413793 0.238095 0
0.413793 0.285714 0
0.413793 0.333333 0
0.413793 0.380952 0
0.413793 0.428571 0
0.413793 0.47619 0
0.413793 0.52381 0
0.413793 0.571429 0
0.413793 0.619048 0
0.413793 0.666667 0
0.413793 0.714286 0
0.413793 0.761905 0
0.413793 0.809524 0
0.413793 0.857143 0
0.413793 0.904762 0
0.413793 0.952381 0
0.413793 1 0
0.45977 0 0
0.45977 0.047619 0
0.45977 0.0952381 0
0.45977 0.142857 0
0.45977 0.190476 0
0.45977 0.238095 0
0.45977 0.285714 0
0.45977 0.333333 0
0.45977 0.380952 0
0.45977 0.428571 0
0.45977 0.47619 0
0.45977 0.52381 0
0.45977 0.571429 0
0.45977 0.619048 0
0.45977 0.666667 0
0.45977 0.714286 0
0.45977 0.761905 0
0.45977 0.809524 0
0.45977 0.857143 0
0.45977 0.904762 0
0.45977 0.952381 0
0.45977 1 0
0.505747 0 0
0.505747 0.047619 0
0.505747 0.0952381 0
0.505747 0.142857 0
0.505747 0.190476 0
0.505747 0.238095 0
0.505747 0.285714 0
0.505747 0.333333 0
0.505747 0.380952 0
0.505747 0.428571 0
0.505747 0.47619 0
0.505747 0.52381 0
0.505747 0.571429 0
0.505747 0.619048 0
0.505747 0.666667 0
0.505747 0.714286 0
0.505747 0.761905 0
0.505747 0.809524 0
0.505747 0.857143 0
0.505747 0.904762 0
0.505747 0.952381 0
0.505747 1 0
0.551724 0 0
0.551724 0.047619 0
0.551724 0.0952381 0
0.551724 0.142857 0
0.551724 0.190476 0
0.551724 0.238095 0
0.551724 0.285714 0
0.551724 0.333333 0
0.551724 0.380952 0
0.551724 0.428571 0
0.551724 0.47619 0
0.551724 0.52381 0
0.551724 0.571429 0
0.551724 0.619048 0
0.551724 0.666667 0
0.551724 0.714286 0
0.551724 0.761905 0
0.551724 0.809524 0
0.551724 0.857143 0
0.551724 0.904762 0
0.551724 0.952381 0
0.551724 1 0
0.597701 0 0
0.597701 0.047619 0
0.597701 0.0952381 0
0.597701 0.142857 0
0.597701 0.190476 0
0.597701 0.238095 0
0.597701 0.285714 0
0.597701 0.333333 0
0.597701 0.380952 0
0.597701 0.428571 0
0.597701 0.47619 0
0.597701 0.52381 0
0.597701 0.571429 0
0.597701 0.619048 0
0.597701 0.666667 0
0.597701 0.714286 0
0.597701 0.761905 0
0.597701 0.809524 0
0.597701 0.857143 0
0.597701 0.904762 0
0.597701 0.952381 0
0.597701 1 0
0.643678 0 0
0.643678 0.047619 0
0.643678 0.0952381 0
0.643678 0.142857 0
0.643678 0.190476 0
0.643678 0.238095 0
0.643678 0.285714 0
0.643678 0.333333 0
0.643678 0.380952 0
0.643678 0.428571 0
0.643678 0.47619 0
0.643678 0.52381 0
0.643678 0.571429 0
0.643678 0.619048 0
0.643678 0.666667 0
0.643678 0.714286 0
0.643678 0.761905 0
0.643678 0.809524 0
0.643678 0.857143 0
0.643678 0.904762 0
0.643678 0.952381 0
0.643678 1 0
0.689655 0 0
0.689655 0.047619 0
0.689655 0.0952381 0
0.689655 0.142857 0
0.689655 0.190476 0
0.689655 0.238095 0
0.689655 0.285714 0
0.689655 0.333333 0
0.689655 0.380952 0
0.689655 0.428571 0
0.689655 0.47619 0
0.689655 0.52381 0
0.689655 0.571429 0
0.689655 0.619048 0
0.689655 0.666667 0
0.689655 0.714286 0
0.689655 0.761905 0
0.689655 0.809524 0
0.689655 0.857143 0
0.689655 0.904762 0
0.689655 0.952381 0
0.689655 1 0
0.735632 0 0
0.735632 0.047619 0
0.735632 0.0952381 0
0.735632 0.142857 0
0.735632 0.190476 0
0.735632 0.238095 0
0.735632 0.285714 0
0.735632 0.333333 0
0.735632 0.380952 0
0.735632 0.428571 0
0.735632 0.47619 0
0.735632 0.52381 0
0.735632 0.571429 0
0.735632 0.619048 0
0.735632 0.666667 0
0.735632 0.714286 0
0.735632 0.761905 0
0.735632 0.809524 0
0.735632 0.857143 0
0.735632 0.904762 0
0.735632 0.952381 0
0.735632 1 0
0.781609 0 0
0.781609 0.047619 0
0.781609 0.0952381 0
0.781609 0.142857 0
0.781609 0.190476 0
0.781609 0.238095 0
0.781609 0.285714 0
0.781609 0.333333 0
0.781609 0.380952 0
0.781609 0.428571 0
0.781609 0.47619 0
0.781609 0.52381 0
0.781609 0.571429 0
0.781609 0.619048 0
0.781609 0.666667 0
0.781609 0.714286 0
0.781609 0.761905 0
0.781609 0.809524 0
0.781609 0.857143 0
0.781609 0.904762 0
0.781609 0.952381 0
0.781609 1 0
0.827586 0 0
0.827586 0.047619 0
0.827586 0.0952381 0
0.827586 0.142857 0
0.827586 0.190476 0
0.827586 0.238095 0
0.827586 0.285714 0
0.827586 0.333333 0
0.827586 0.380952 0
0.827586 0.428571 0
0.827586 0.47619 0
0.827586 0.52381 0
0.827586 0.571429 0
0.827586 0.619048 0
0.827586 0.666667 0
0.827586 0.714286 0
0.827586 0.761905 0
0.827586 0.809524 0
0.827586 0.857143 0
0.827586 0.904762 0
0.827586 0.952381 0
0.827586 1 0
0.873563 0 0
0.873563 0.047619 0
0.873563 0.0952381 0
0.873563 0.142857 0
0.873563 0.190476 0
0.873563 0.238095 0
0.873563 0.285714 0
0.873563 0.333333 0
0.873563 0.380952 0
0.873563 0.428571 0
0.873563 0.47619 0
0.873563 0.52381 0
0.873563 0.571429 0
0.873563 0.619048 0
0.873563 0.666667 0
0.873563 0.714286 0
0.873563 0.761905 0
0.873563 0.809524 0
0.873563 0.857143 0
0.873563 0.904762 0
0.873563 0.952381 0
0.873563 1 0
0.91954 0 0
0.91954 0.047619 0
0.91954 0.0952381 0
0.91954 0.142857 0
0.91954 0.190476 0
0.91954 0.238095 0
0.91954 0.285714 0
0.91954 0.333333 0
0.91954 0.380952 0
0.91954 0.428571 0
0.91954 0.47619 0
0.91954 0.52381 0
0.91954 0.571429 0
0.91954 0.619048 0
0.91954 0.666667 0
0.91954 0.714286 0
0.91954 0.761905 0
0.91954 0.809524 0
0.91954 0.857143 0
0.91954 0.904762 0
0.91954 0.952381 0
0.91954 1 0
0.965517 0 0
0.965517 0.047619 0
0.965517 0.0952381 0
0.965517 0.142857 0
0.965517 0.190476 0
0.965517 0.238095 0
0.965517 0.285714 0
0.965517 0.333333 0
0.965517 0.380952 0
0.965517 0.428571 0
0.965517 0.47619 0
0.965517 0.52381 0
0.965517 0.571429 0
0.965517 0.619048 0
0.965517 0.666667 0
0.965517 0.714286 0
0.965517 0.761905 0
0.965517 0.809524 0
0.965517 0.857143 0
0.965517 0.904762 0
0.965517 0.952381 0
0.965517 1 0
1.01149 0 0
1.01149 0.047619 0
1.01149 0.0952381 0
1.01149 0.142857 0
1.01149 0.190476 0
1.01149 0.238095 0
1.01149 0.285714 0
1.01149 0.333333 0
1.01149 0.380952 0
1.01149 0.428571 0
1.01149 0.47619 0
1.01149 0.52381 0
1.01149 0.571429 0
1.01149 0.619048 0
1.01149 0.666667 0
1.01149 0.714286 0
1.01149 0.761905 0
1.01149 0.809524 0
1.01149 0.857143 0
1.01149 0.904762 0
1.01149 0.952381 0
1.01149 1 0
1.05747 0 0
1.05747 0.047619 0
1.05747 0.0952381 0
1.05747 0.142857 0
1.05747 0.190476 0
1.05747 0.238095 0
1.05747 0.285714 0
1.05747 0.333333 0
1.05747 0.380952 0
1.05747 0.428571 0
1.05747 0.47619 0
1.05747 0.52381 0
1.05747 0.571429 0
1.05747 0.619048 0
1.05747 0.666667 0
1.05747 0.714286 0
1.05747 0.761905 0
1.05747 0.809524 0
1.05747 0.857143 0
1.05747 0.904762 0
1.05747 0.952381 0
1.05747 1 0
1.10345 0 0
1.10345 0.047619 0
1.10345 0.0952381 0
1.10345 0.142857 0
1.10345 0.190476 0
1.10345 0.238095 0
1.10345 0.285714 0
1.10345 0.333333 0
1.10345 0.380952 0
1.10345 0.428571 0
1.10345 0.47619 0
1.10345 0.52381 0
1.10345 0.571429 0
[...]
POINT_DATA 1913
VECTORS velocity[m/s] double
-0 0.209466 0
0 0.209466 0
0 0.209405 0
0 0.181001 0
0 0.150677 0
0 0.121924 0
0 0.0949087 0
0 0.0692913 0
0 0.044654 0
0 0.0205825 0
0 -0.0033231 0
0 -0.0274636 0
0 -0.052267 0
0 -0.0782249 0
0 -0.105939 0
0 -0.136188 0
0 -0.170015 0
0 -0.208846 0
0 -0.254183 0
0 -0.302671 0
0 -0.309844 0
-0.872463 0.185237 0
0.872463 0.00163379 0
1.07476 0.185237 0
1.10213 0.20884 0
1.10398 0.184456 0
1.10247 0.153063 0
1.10079 0.123277 0
1.09944 0.0957068 0
1.09849 0.0697792 0
1.09795 0.0449316 0
1.09779 0.020691 0
1.09801 -0.00336692 0
1.09865 -0.0276549 0
1.09977 -0.0526099 0
1.10146 -0.0787344 0
1.10391 -0.106654 0
1.10736 -0.137209 0
1.11219 -0.171582 0
1.11848 -0.211166 0
1.12152 -0.254993 0
1.08163 -0.286256 0
0.775543 -0.235209 0
-0.695192 0.144679 0
0.695192 0.00129611 0
1.05198 0.144679 0
1.12567 0.189919 0
1.1343 0.178695 0
1.13123 0.151255 0
1.12741 0.122313 0
1.12447 0.0949994 0
1.12248 0.069284 0
1.12135 0.044654 0
1.12101 0.0206321 0
1.12146 -0.00319879 0
1.12275 -0.0272337 0
1.12499 -0.0518833 0
1.12842 -0.077615 0
1.13341 -0.105004 0
1.14055 -0.134792 0
1.15041 -0.167775 0
1.16079 -0.203605 0
1.1517 -0.235278 0
1.03234 -0.234726 0
0.548445 -0.146313 0
-0.556753 0.105545 0
0.556753 0.000944866 0
1.0083 0.105545 0
1.13651 0.161766 0
1.16079 0.16472 0
1.15917 0.14464 0
1.15378 0.118686 0
1.1493 0.0927057 0
1.14627 0.0678151 0
1.14455 0.0438418 0
1.14402 0.0204114 0
1.14467 -0.00283883 0
1.14655 -0.0262533 0
1.14984 -0.0501839 0
1.15487 -0.0750186 0
1.16217 -0.101204 0
1.1724 -0.129187 0
1.18501 -0.158897 0
1.19137 -0.187485 0
1.15117 -0.203034 0
0.946978 -0.176782 0
0.407177 -0.0836805 0
-0.455761 0.0738508 0
0.455761 0.000660508 0
0.954015 0.0738508 0
1.13366 0.132255 0
1.18018 0.146293 0
1.18423 0.134348 0
1.17887 0.112715 0
1.17334 0.0889768 0
1.16941 0.0654722 0
1.16717 0.042552 0
1.16647 0.0200418 0
1.16728 -0.0023212 0
1.16965 -0.0248038 0
1.17381 -0.0476749 0
1.18015 -0.0712126 0
1.18919 -0.0956782 0
1.20109 -0.121107 0
1.21261 -0.146399 0
1.20639 -0.166585 0
1.12583 -0.167853 0
0.857087 -0.128047 0
0.326382 -0.0478375 0
-0.385095 0.050491 0
0.385095 0.000451217 0
0.897624 0.050491 0
1.12011 0.105579 0
1.19171 0.126743 0
1.20512 0.122055 0
1.20179 0.10514 0
1.19603 0.0841751 0
1.19154 0.0624568 0
1.1889 0.0408901 0
1.18807 0.0195538 0
1.18899 -0.001686 0
1.19174 -0.0230027 0
1.19654 -0.044571 0
1.20377 -0.0665472 0
1.21374 -0.0889857 0
1.22551 -0.111484 0
1.2321 -0.13203 0
1.20761 -0.144387 0
1.08739 -0.135444 0
0.779644 -0.0918156 0
0.280195 -0.028673 0
-0.336781 0.0343605 0
0.336781 0.000306845 0
0.844437 0.0343605 0
1.09967 0.0833482 0
1.19624 0.108197 0
1.22145 0.109226 0
1.22203 0.0967694 0
1.217 0.078741 0
1.21237 0.059018 0
1.2095 0.0389876 0
1.20857 0.0189891 0
1.20957 -0.000972969 0
1.21256 -0.0209755 0
1.21776 -0.0411003 0
1.22544 -0.0613849 0
1.23546 -0.0816828 0
1.24534 -0.101196 0
1.24403 -0.117241 0
1.19898 -0.123169 0
1.04527 -0.108049 0
0.718679 -0.0662802 0
0.252511 -0.0183182 0
-0.303902 0.0237136 0
0.303902 0.000211619 0
0.797139 0.0237136 0
1.07568 0.0657102 0
1.19524 0.0917168 0
1.23348 0.0968638 0
1.23944 0.0882758 0
1.23604 0.0730814 0
1.23171 0.0553979 0
1.22881 0.0369762 0
1.22785 0.0183917 0
1.22888 -0.000217689 0
1.23199 -0.0188391 0
1.23735 -0.0374714 0
1.24503 -0.0560459 0
1.2543 -0.074237 0
1.26084 -0.0909239 0
1.24976 -0.10302 0
1.18438 -0.104099 0
1.00494 -0.0859365 0
0.672371 -0.0485946 0
0.234825 -0.0124193 0
-0.281211 0.0168607 0
0.281211 0.000150359 0
0.75659 0.0168607 0
1.05057 0.0521197 0
1.19028 0.0776425 0
1.24177 0.0855351 0
1.25411 0.0801245 0
1.25312 0.0675121 0
1.24949 0.0517958 0
1.24676 0.0349677 0
1.24582 0.0178002 0
1.24686 0.000550217 0
1.24998 -0.0166918 0
1.25528 -0.0338551 0
1.2626 -0.0507811 0
1.27042 -0.0669932 0
1.27252 -0.0811296 0
1.2508 -0.0899308 0
1.16684 -0.0875938 0
0.968888 -0.0685188 0
0.637443 -0.0363221 0
0.222834 -0.00883072 0
-0.265077 0.0124685 0
0.265078 0.000111117 0
0.722548 0.0124685 0
1.02593 0.0418077 0
1.18266 0.0659089 0
1.24699 0.0754805 0
1.26628 0.072588 0
1.26829 0.0622443 0
1.26574 0.0483544 0
1.26333 0.0330453 0
1.26247 0.0172436 0
1.26351 0.00130735 0
1.26655 -0.0146084 0
1.27162 -0.0303772 0
1.27825 -0.0457667 0
1.28407 -0.0601773 0
1.28101 -0.0720833 0
1.24854 -0.0782321 0
1.14843 -0.0736413 0
0.937802 -0.0549627 0
0.6109 -0.0277059 0
0.214308 -0.00651664 0
-0.253147 0.00961002 0
0.253147 8.55917e-05 0
0.69422 0.00961001 0
1.00266 0.0340233 0
1.17341 0.0562604 0
1.24979 0.0667356 0
1.27627 0.0657913 0
1.2817 0.057397 0
1.28052 0.0451613 0
1.27859 0.0312618 0
1.27786 0.0167395 0
1.27887 0.00203603 0
1.28178 -0.0126409 0
1.28648 -0.0271211 0
1.29217 -0.0411118 0
1.29556 -0.0539167 0
1.28695 -0.0639129 0
1.24411 -0.0679822 0
1.13039 -0.0620207 0
0.911485 -0.0444598 0
0.590442 -0.0215612 0
0.208016 -0.00495738 0
-0.243951 0.00769257 0
0.243951 6.84802e-05 0
0.670649 0.00769255 0
0.981188 0.0281335 0
1.1633 0.04838 0
1.2507 0.0592232 0
1.28438 0.0597606 0
1.29352 0.0530193 0
1.29394 0.0422587 0
1.29261 0.0296437 0
1.29205 0.0162954 0
1.29305 0.00272349 0
1.29576 -0.0108214 0
1.29999 -0.0241339 0
1.30453 -0.0368721 0
1.30521 -0.0482659 0
1.29088 -0.0566499 0
1.23836 -0.0591233 0
1.11344 -0.05243 0
0.889377 -0.0363225 0
0.574411 -0.0171065 0
0.20323 -0.00387327 0
-0.23659 0.00635674 0
0.236591 5.65664e-05 0
0.650913 0.00635672 0
0.96164 0.023644 0
1.15283 0.0419566 0
1.25018 0.0528135 0
1.29089 0.0544628 0
1.30391 0.0491132 0
1.30612 0.0396558 0
1.3055 0.0281975 0
1.30516 0.015911 0
1.30612 0.00336101 0
1.30861 -0.00916598 0
1.31229 -0.0214355 0
1.31553 -0.0330646 0
1.31331 -0.0432293 0
1.29327 -0.0502654 0
1.23189 -0.051537 0
1.09789 -0.044556 0
0.870824 -0.0300005 0
0.561634 -0.0138262 0
0.199491 -0.00310209 0
-0.230508 0.00538968 0
0.230508 4.79463e-05 0
0.634223 0.00538966 0
0.943959 0.0201853 0
1.14235 0.0367137 0
1.24859 0.0473608 0
1.29605 0.0498343 0
1.31304 0.0456523 0
1.31719 0.0373403 0
1.31736 0.0269163 0
1.31728 0.0155809 0
1.31822 0.0039432 0
1.32046 -0.00767912 0
1.32352 -0.019026 0
1.32534 -0.02968 0
1.3201 -0.0387798 0
1.2945 -0.0446965 0
1.22515 -0.0450799 0
1.08383 -0.0381074 0
0.855207 -0.0250667 0
0.55128 -0.011376 0
0.196496 -0.00254362 0
-0.225351 0.00466509 0
0.225351 4.14903e-05 0
0.619938 0.00466507 0
0.928001 0.0174872 0
1.13207 0.0324183 0
1.2462 0.0427229 0
1.30009 0.0457989 0
1.32106 0.0425951 0
1.32725 0.0352876 0
1.32831 0.0257848 0
1.32851 0.0152966 0
1.32944 0.0044673 0
1.33142 -0.00635709 0
1.3338 -0.0168927 0
1.33413 -0.0266927 0
1.32582 -0.0348727 0
1.29487 -0.0398637 0
1.21842 -0.0396037 0
1.07124 -0.0328281 0
0.841989 -0.0211945 0
0.542753 -0.00952208 0
0.194041 -0.0021331 0
-0.220887 0.00410618 0
0.220888 3.65124e-05 0
0.607558 0.00410616 0
0.913585 0.015354 0
1.12212 0.0288801 0
1.24323 0.0387704 0
1.30318 0.0422792 0
1.32812 0.0398946 0
1.33643 0.0334676 0
1.33843 0.0247841 0
1.33897 0.0150484 0
1.33989 0.00493264 0
1.34159 -0.00519095 0
1.34327 -0.0150155 0
1.34203 -0.0240684 0
1.33063 -0.0314547 0
1.29462 -0.0356825 0
1.21188 -0.0349677 0
1.06001 -0.028501 0
0.83072 -0.0181359 0
0.535619 -0.00810244 0
0.191981 -0.00182721 0
-0.216958 0.00366444 0
0.216959 3.25791e-05 0
0.596698 0.00366441 0
0.900526 0.0136439 0
1.11257 0.0259456 0
1.23984 0.0353901 0
1.30549 0.039202 0
1.33433 0.0375035 0
1.34481 0.0318486 0
1.34784 0.0238942 0
1.34874 0.0148268 0
1.34967 0.00534019 0
1.35108 -0.00416873 0
1.35201 -0.0133701 0
1.34916 -0.0217691 0
1.33472 -0.0284703 0
1.29393 -0.0320698 0
1.20564 -0.0310438 0
1.05 -0.0249454 0
0.821032 -0.015703 0
0.529561 -0.00700295 0
0.190218 -0.00159628 0
-0.213452 0.0033079 0
0.213453 2.94054e-05 0
0.587063 0.00330787 0
0.888649 0.0122536 0
1.10345 0.023493 0
1.23616 0.0324852 0
1.30713 0.0365015 0
1.33979 0.0353776 0
1.35249 0.0304007 0
1.35659 0.0230962 0
1.3579 0.0146234 0
1.35885 0.00569213 0
1.35996 -0.00327699 0
1.36012 -0.0119313 0
1.35563 -0.0197567 0
1.33819 -0.0258653 0
1.29294 -0.0289483 0
1.19975 -0.0277187 0
1.04108 -0.0220131 0
0.812633 -0.0137531 0
0.524341 -0.00614181 0
0.188677 -0.00141961 0
-0.210287 0.00301467 0
0.210288 2.67956e-05 0
0.578426 0.00301464 0
0.877797 0.0111077 0
1.09477 0.0214255 0
1.23229 0.0299746 0
1.30821 0.0341199 0
1.34459 0.0334775 0
1.35954 0.0290966 0
1.36477 0.0223729 0
1.36652 0.0144309 0
1.36751 0.00599152 0
1.36832 -0.00250193 0
1.36767 -0.0106742 0
1.36153 -0.0179945 0
1.34117 -0.0235896 0
1.29175 -0.0262479 0
1.19424 -0.024895 0
1.0331 -0.0195837 0
0.805284 -0.0121773 0
0.519782 -0.00545961 0
0.187306 -0.00128249 0
-0.207403 0.00276928 0
0.207403 2.46122e-05 0
0.570613 0.00276925 0
0.867836 0.0101501 0
1.08652 0.0196668 0
1.22828 0.0277909 0
1.30883 0.032008 0
1.34882 0.0317686 0
1.36604 0.0279128 0
1.37244 0.0217095 0
1.37467 0.0142434 0
1.37571 0.00624205 0
1.37621 -0.00183005 0
1.37474 -0.00957524 0
1.36693 -0.016449 0
1.34374 -0.0215976 0
1.29044 -0.0239067 0
1.18911 -0.0224891 0
1.02595 -0.0175597 0
0.798798 -0.0108928 0
0.515749 -0.00491267 0
0.186068 -0.00117438 0
-0.204753 0.00256061 0
0.204754 2.27558e-05 0
0.563487 0.00256058 0
0.858647 0.00933926 0
1.07867 0.0181568 0
1.22421 0.0258784 0
1.30906 0.0301239 0
1.35254 0.0302216 0
1.37203 0.0268292 0
1.37965 0.021094 0
1.38239 0.0140568 0
1.3835 0.00644775 0
1.38369 -0.00124859 0
1.38138 -0.00861307 0
1.3719 -0.0150898 0
1.34597 -0.0198489 0
1.28908 -0.0218705 0
1.18435 -0.0204308 0
1.01952 -0.0158629 0
0.793025 -0.00983572 0
0.51214 -0.00446859 0
0.184935 -0.00108764 0
-0.202304 0.00238051 0
0.202304 2.11538e-05 0
0.556942 0.00238048 0
0.850134 0.00864385 0
1.07122 0.0168481 0
1.22011 0.0241916 0
1.30897 0.0284325 0
1.35582 0.028812 0
1.37756 0.0258291 0
1.38644 0.0205164 0
1.38974 0.0138678 0
1.39094 0.00661285 0
1.3908 -0.000745819 0
1.38763 -0.00776845 0
1.3765 -0.0138903 0
1.34792 -0.0183082 0
1.28769 -0.0200927 0
1.17994 -0.0186613 0
1.0137 -0.0144303 0
0.787843 -0.0089571 0
0.508876 -0.00410317 0
0.183885 -0.00101672 0
-0.200026 0.00222296 0
0.200027 1.97526e-05 0
0.550895 0.00222293 0
0.842213 0.00804026 0
1.06413 0.0157033 0
1.21602 0.0226932 0
1.3086 0.0269047 0
1.3587 0.0275192 0
1.38269 0.024899 0
1.39286 0.019969 0
1.39675 0.0136746 0
1.39804 0.00674159 0
1.39758 -0.000311059 0
1.39354 -0.00702439 0
1.38076 -0.0128271 0
1.34964 -0.0169448 0
1.2863 -0.0185335 0
1.17586 -0.0171315 0
1.00841 -0.0132114 0
0.783157 -0.00821903 0
0.505896 -0.00379823 0
0.182904 -0.000957537 0
-0.197899 0.00208347 0
0.1979 1.85121e-05 0
0.545279 0.00208343 0
0.834815 0.00751054 0
1.05738 0.014693 0
1.21195 0.0213529 0
1.30801 0.0255164 0
1.36123 0.0263264 0
1.38745 0.0240281 0
1.39894 0.0194458 0
1.40344 0.0134761 0
1.40485 0.00683815 0
1.40406 6.523e-05 0
1.39915 -0.00636607 0
1.38474 -0.0118801 0
1.35118 -0.0157326 0
1.28495 -0.0171591 0
1.17207 -0.0158008 0
1.00359 -0.0121657 0
0.778889 -0.00759214 0
0.503154 -0.00354002 0
0.18198 -0.000907108 0
-0.195906 0.00195867 0
0.195907 1.74024e-05 0
0.540039 0.00195863 0
0.82788 0.00704092 0
1.05095 0.0137938 0
1.20793 0.020146 0
1.30723 0.0242478 0
1.36345 0.0252198 0
1.39188 0.0232075 0
1.40471 0.0189423 0
1.40985 0.013272 0
1.41139 0.00690653 0
1.41027 0.000391504 0
1.40447 -0.00578065 0
1.38846 -0.0110321 0
1.35255 -0.014649 0
1.28364 -0.015941 0
1.16856 -0.0146356 0
0.999178 -0.0112609 0
0.774977 -0.00705359 0
0.500612 -0.00331812 0
0.181104 -0.000863239 0
-0.194032 0.00184601 0
0.194033 1.64008e-05 0
0.535132 0.00184597 0
0.821361 0.00662078 0
1.04482 0.0129873 0
1.20397 0.0190525 0
1.30629 0.0230823 0
1.36539 0.0241881 0
1.396 0.0224304 0
1.41018 0.0184554 0
1.416 0.0130625 0
1.41768 0.00695051 0
1.41623 0.000675197 0
1.40954 -0.00525709 0
1.39195 -0.0102681 0
1.3538 -0.0136751 0
1.28238 -0.0148549 0
1.16531 -0.0136082 0
0.995116 -0.0104709 0
0.77137 -0.00658556 0
0.498242 -0.0031246 0
0.180271 -0.000824313 0
-0.192266 0.00174353 0
0.192267 1.54897e-05 0
0.530523 0.00174348 0
0.815214 0.00624188 0
1.03896 0.0122587 0
1.20008 0.0180558 0
1.30522 0.0220064 0
1.36709 0.023222 0
1.39984 0.0216915 0
1.41539 0.0179828 0
1.4219 0.0128482 0
1.42374 0.00697358 0
1.42196 0.000922795 0
1.41438 -0.00478594 0
1.39524 -0.00957585 0
1.35494 -0.0127945 0
1.28118 -0.0138807 0
1.16228 -0.0126956 0
0.991365 -0.00977486 0
0.768029 -0.00617413 0
0.496021 -0.00295341 0
0.179475 -0.000789142 0
-0.190598 0.00164972 0
0.190599 1.46559e-05 0
0.52618 0.00164968 0
0.809405 0.00589778 0
1.03337 0.0115964 0
1.19627 0.0171426 0
1.30405 0.021009 0
1.36857 0.022314 0
1.40342 0.0209863 0
1.42035 0.0175228 0
1.42757 0.0126298 0
1.42958 0.00697894 0
1.42747 0.00113992 0
1.41901 -0.00435917 0
1.39835 -0.00894454 0
1.35599 -0.0119937 0
1.28003 -0.0130013 0
1.15946 -0.0118791 0
0.987888 -0.00915594 0
0.76492 -0.00580834 0
0.493932 -0.00279989 0
0.178714 -0.000756849 0
-0.18902 0.0015634 0
0.189021 1.38886e-05 0
0.522078 0.00156336 0
0.803904 0.00558335 0
1.02801 0.0109907 0
1.19254 0.0163019 0
1.30279 0.0200806 0
1.36985 0.0214578 0
1.40676 0.0203117 0
1.42507 0.0170745 0
1.43303 0.0124084 0
1.43522 0.00696948 0
1.43278 0.00133141 0
1.42343 -0.00396995 0
1.4013 -0.00836525 0
1.35696 -0.011261 0
1.27895 -0.0122025 0
1.15683 -0.0111431 0
0.984657 -0.00860062 0
0.762015 -0.00547959 0
0.49196 -0.00266049 0
0.177983 -0.000726785 0
-0.187525 0.00148362 0
0.187526 1.31795e-05 0
0.518197 0.00148358 0
0.798683 0.00529452 0
1.02288 0.0104342 0
1.18889 0.0155245 0
1.30146 0.0192135 0
1.37096 0.0206482 0
1.40989 0.0196648 0
1.42958 0.016637 0
1.43828 0.0121848 0
1.44066 0.00694775 0
1.4379 0.00150139 0
1.42768 -0.00361253 0
1.40409 -0.00783039 0
1.35787 -0.0105867 0
1.27793 -0.0114723 0
1.15437 -0.0104748 0
0.981643 -0.00809796 0
0.759294 -0.00518106 0
0.490093 -0.00253243 0
0.177282 -0.000698468 0
-0.186106 0.00140963 0
0.186106 1.25219e-05 0
0.514518 0.00140959 0
0.793721 0.005028 0
1.01797 0.00992031 0
1.18533 0.0148029 0
1.30008 0.0184011 0
1.37191 0.0198808 0
1.41281 0.0190435 0
1.43387 0.01621 0
1.44334 0.0119601 0
1.44592 0.00691598 0
1.44284 0.00165338 0
1.43175 -0.00328207 0
1.40675 -0.00733358 0
1.35873 -0.00996253 0
1.27696 -0.0108007 0
1.15208 -0.00986366 0
0.978827 -0.0076391 0
0.756737 -0.00490733 0
0.488323 -0.00241356 0
0.176608 -0.000671539 0
-0.184757 0.0013408 0
0.184758 1.19102e-05 0
0.511025 0.00134075 0
0.788998 0.00478106 0
1.01326 0.009444 0
1.18185 0.0141306 0
1.29865 0.0176377 0
1.37272 0.0191518 0
1.41555 0.0184459 0
1.43798 0.0157932 0
1.44821 0.011735 0
1.45101 0.00687606 0
1.4476 0.00179029 0
1.43566 -0.00297455 0
1.40929 -0.00686949 0
1.35954 -0.00938157 0
1.27606 -0.0101792 0
1.14993 -0.00930082 0
0.97619 -0.00721686 0
0.75433 -0.00465407 0
0.486641 -0.00230219 0
0.17596 -0.000645724 0
-0.183475 0.00127659 0
0.183475 1.13396e-05 0
0.507704 0.00127655 0
0.784496 0.00455146 0
1.00873 0.00900084 0
1.17847 0.0135022 0
1.29719 0.0169185 0
1.3734 0.018458 0
1.41811 0.0178704 0
1.4419 0.0153861 0
1.4529 0.0115104 0
1.45592 0.00682957 0
1.4522 0.00191454 0
1.43942 -0.00268662 0
1.41172 -0.00643365 0
1.36031 -0.00883798 0
1.27521 -0.0096009 0
1.14792 -0.00877908 0
0.973716 -0.00682536 0
0.752059 -0.00441783 0
0.485042 -0.00219699 0
0.175337 -0.000620815 0
-0.182253 0.00121656 0
0.182254 1.08062e-05 0
0.504542 0.00121652 0
0.7802 0.0043373 0
1.00438 0.00858714 0
1.17517 0.0129131 0
1.2957 0.0162391 0
1.37397 0.0177962 0
1.42051 0.0173154 0
1.44564 0.0149885 0
1.45742 0.0112866 0
1.46066 0.00677775 0
1.45665 0.00202808 0
1.44304 -0.00241558 0
1.41404 -0.00602235 0
1.36105 -0.00832688 0
1.27442 -0.00905979 0
1.14603 -0.00829244 0
0.971392 -0.00645981 0
0.749915 -0.00419581 0
0.483521 -0.00209692 0
0.174738 -0.000596649 0
-0.18109 0.00116032 0
0.181091 1.03064e-05 0
0.501529 0.00116028 0
0.776097 0.00413693 0
1.00021 0.00819968 0
1.17196 0.0123591 0
1.2942 0.0155958 0
1.37443 0.0171639 0
1.42276 0.0167794 0
1.44921 0.0145999 0
1.46177 0.0110641 0
1.46525 0.00672156 0
1.46094 0.0021324 0
1.44652 -0.00215925 0
1.41626 -0.00563258 0
1.36175 -0.0078442 0
1.27368 -0.00855099 0
1.14427 -0.00783593 0
0.969206 -0.00611632 0
0.747889 -0.00398575 0
0.482073 -0.00200112 0
0.174162 -0.000573097 0
-0.17998 0.00110751 0
0.179981 9.83717e-06 0
0.498655 0.00110748 0
0.772175 0.00394894 0
0.996193 0.00783567 0
1.16883 0.0118366 0
1.29268 0.0149851 0
1.3748 0.0165584 0
1.42486 0.0162611 0
1.45263 0.0142198 0
1.46596 0.010843 0
1.46968 0.00666163 0
1.46508 0.00222865 0
1.44988 -0.00191594 0
1.4184 -0.00526185 0
1.36244 -0.00738657 0
1.27299 -0.0080704 0
1.14261 -0.00740545 0
0.96715 -0.00579167 0
0.745973 -0.00378585 0
0.480694 -0.00190891 0
0.173609 -0.000550055 0
-0.178921 0.00105784 0
0.178922 9.39576e-06 0
0.495912 0.00105781 0
0.768423 0.00377205 0
0.99233 0.00749263 0
1.16579 0.0113423 0
1.29116 0.0144037 0
1.37509 0.0159773 0
1.42683 0.0157589 0
1.45589 0.0138476 0
1.47 0.0106232 0
1.47396 0.0065983 0
1.46908 0.00231756 0
1.45311 -0.00168437 0
1.42045 -0.00490823 0
1.3631 -0.00695123 0
1.27235 -0.00761464 0
1.14105 -0.00699763 0
0.965213 -0.00548327 0
0.744161 -0.00359464 0
0.479383 -0.00181977 0
0.173078 -0.000527441 0
-0.177909 0.001011 0
0.17791 8.97965e-06 0
0.493292 0.00101098 0
0.764831 0.00360513 0
0.988614 0.00716833 0
1.16284 0.0108732 0
1.28965 0.0138487 0
1.3753 0.0154182 0
1.42868 0.0152713 0
1.459 0.0134822 0
1.47389 0.0104043 0
1.47809 0.00653162 0
1.47295 0.00239955 0
1.45622 -0.00146369 0
1.42243 -0.00457023 0
1.36374 -0.00653596 0
1.27175 -0.00718096 0
1.13959 -0.00660971 0
0.96339 -0.00518903 0
0.742448 -0.00341096 0
0.478135 -0.00173328 0
0.17257 -0.000505192 0
-0.176942 0.000966753 0
0.176943 8.5865e-06 0
0.490788 0.000966734 0
0.761391 0.00344715 0
0.985037 0.00686071 0
1.15997 0.0104266 0
1.28813 0.0133172 0
1.37544 0.0148787 0
1.4304 0.0147965 0
1.46197 0.0131229 0
1.47763 0.0101858 0
1.48208 0.00646136 0
1.47668 0.00247472 0
1.45922 -0.00125337 0
1.42432 -0.00424676 0
1.36436 -0.00613903 0
1.2712 -0.00676714 0
1.13821 -0.0062395 0
0.961674 -0.00490729 0
0.740829 -0.0032339 0
0.47695 -0.00164912 0
0.172082 -0.000483261 0
-0.176017 0.000924848 0
0.176018 8.2142e-06 0
0.488393 0.000924836 0
0.758095 0.00329715 0
0.981594 0.0065679 0
1.15717 0.0099998 0
1.28662 0.0128065 0
1.37552 0.0143565 0
1.43202 0.0143329 0
1.46481 0.0127682 0
1.48122 0.00996693 0
1.48593 0.00638703 0
1.48028 0.00254288 0
1.46211 -0.00105323 0
1.42615 -0.00393711 0
1.36497 -0.00575914 0
1.27069 -0.00637146 0
1.13693 -0.00588526 0
0.960059 -0.00463676 0
0.739299 -0.0030628 0
0.475825 -0.00156706 0
0.171616 -0.000461616 0
-0.175133 0.000885061 0
0.175134 7.86072e-06 0
0.486103 0.000885056 0
0.754938 0.00315424 0
0.978281 0.00628811 0
1.15447 0.00959041 0
1.28513 0.0123139 0
1.37555 0.0138491 0
1.43353 0.0138784 0
1.46752 0.0124168 0
1.48468 0.00974658 0
1.48964 0.00630789 0
1.48375 0.00260356 0
1.4649 -0.00086337 0
1.42791 -0.00364089 0
1.36556 -0.00539536 0
1.27022 -0.0059926 0
1.13572 -0.00554566 0
0.958539 -0.00437647 0
0.737855 -0.00289717 0
0.474758 -0.00148697 0
0.171171 -0.000440246 0
-0.174286 0.000847175 0
0.174288 7.52416e-06 0
0.483912 0.00084718 0
0.751912 0.00301756 0
0.975093 0.00601965 0
1.15184 0.00919601 0
1.28365 0.0118366 0
1.37552 0.013354 0
1.43494 0.013431 0
1.47009 0.012067 0
1.488 0.00952353 0
1.49322 0.00622295 0
1.4871 0.00265606 0
1.46758 -0.000684155 0
1.42961 -0.00335801 0
1.36614 -0.00504709 0
1.26979 -0.00562962 0
1.1346 -0.00521977 0
0.957112 -0.00412577 0
0.736494 -0.00273673 0
0.473748 -0.00140879 0
0.170746 -0.000419152 0
-0.173476 0.000810981 0
0.173477 7.20263e-06 0
0.481817 0.000810996 0
0.749014 0.0028863 0
0.972027 0.00576088 0
1.14929 0.00881427 0
1.28218 0.0113722 0
1.37544 0.0128688 0
1.43626 0.0129886 0
1.47255 0.0117172 0
1.49119 0.00929633 0
1.49667 0.00613104 0
1.49032 0.00269943 0
1.47016 -0.000516184 0
1.43124 -0.00308863 0
1.3667 -0.00471406 0
1.2694 -0.00528193 0
1.13354 -0.00490693 0
0.955771 -0.00388424 0
0.735212 -0.00258131 0
0.472792 -0.00133252 0
0.170342 -0.000398353 0
-0.172701 0.000776265 0
0.172702 6.89425e-06 0
0.479814 0.000776292 0
0.746239 0.00275964 0
0.969079 0.00551018 0
1.14682 0.00844288 0
1.28074 0.0109179 0
1.37533 0.0123908 0
1.43749 0.0125489 0