# vtk DataFile Version 3.0
vtk output
ASCII
DATASET UNSTRUCTURED_GRID
POINTS 1913 double
0.045977 0 0
0.045977 0.0952381 0
0.045977 0.142857 0
0.045977 0.190476 0
0.045977 0.238095 0
0.045977 0.285714 0
0.045977 0.333333 0
0.045977 0.380952 0
0.045977 0.428571 0
0.045977 0.47619 0
0.045977 0.52381 0
0.045977 0.571429 0
0.045977 0.619048 0
0.045977 0.666667 0
0.045977 0.714286 0
0.045977 0.761905 0
0.045977 0.809524 0
0.045977 0.857143 0
0.045977 0.904762 0
0.045977 0.952381 0
0.045977 1 0
0.091954 0 0
0.091954 0.047619 0
0.091954 0.0952381 0
0.091954 0.142857 0
0.091954 0.190476 0
0.091954 0.238095 0
0.091954 0.285714 0
0.091954 0.333333 0
0.091954 0.380952 0
0.091954 0.428571 0
0.091954 0.47619 0
0.091954 0.52381 0
0.091954 0.571429 0
0.091954 0.619048 0
0.091954 0.666667 0
0.091954 0.714286 0
0.091954 0.761905 0
0.091954 0.809524 0
0.091954 0.857143 0
0.091954 0.904762 0
0.091954 0.952381 0
0.091954 1 0
0.137931 0 0
0.137931 0.047619 0
0.137931 0.0952381 0
0.137931 0.142857 0
0.137931 0.190476 0
0.137931 0.238095 0
0.137931 0.285714 0
0.137931 0.333333 0
0.137931 0.380952 0
0.137931 0.428571 0
0.137931 0.47619 0
0.137931 0.52381 0
0.137931 0.571429 0
0.137931 0.619048 0
0.137931 0.666667 0
0.137931 0.714286 0
0.137931 0.761905 0
0.137931 0.809524 0
0.137931 0.857143 0
0.137931 0.904762 0
0.137931 0.952381 0
0.137931 1 0
0.183908 0 0
0.183908 0.047619 0
0.183908 0.0952381 0
0.183908 0.142857 0
0.183908 0.190476 0
0.183908 0.238095 0
0.183908 0.285714 0
0.183908 0.333333 0
0.183908 0.380952 0
0.183908 0.428571 0
0.183908 0.47619 0
0.183908 0.52381 0
0.183908 0.571429 0
0.183908 0.619048 0
0.183908 0.666667 0
0.183908 0.714286 0
0.183908 0.761905 0
0.183908 0.809524 0
0.183908 0.857143 0
0.183908 0.904762 0
0.183908 0.952381 0
0.183908 1 0
0.229885 0 0
0.229885 0.047619 0
0.229885 0.0952381 0
0.229885 0.142857 0
0.229885 0.190476 0
0.229885 0.238095 0
0.229885 0.285714 0
0.229885 0.333333 0
0.229885 0.380952 0
0.229885 0.428571 0
0.229885 0.47619 0
0.229885 0.52381 0
0.229885 0.571429 0
0.229885 0.619048 0
0.229885 0.666667 0
0.229885 0.714286 0
0.229885 0.761905 0
0.229885 0.809524 0
0.229885 0.857143 0
0.229885 0.904762 0
0.229885 0.952381 0
0.229885 1 0
0.275862 0 0
0.275862 0.047619 0
0.275862 0.0952381 0
0.275862 0.142857 0
0.275862 0.190476 0
0.275862 0.238095 0
0.275862 0.285714 0
0.275862 0.333333 0
0.275862 0.380952 0
0.275862 0.428571 0
0.275862 0.47619 0
0.275862 0.52381 0
0.275862 0.571429 0
0.275862 0.619048 0
0.275862 0.666667 0
0.275862 0.714286 0
0.275862 0.761905 0
0.275862 0.809524 0
0.275862 0.857143 0
0.275862 0.904762 0
0.275862 0.952381 0
0.275862 1 0
0.321839 0 0
0.321839 0.047619 0
0.321839 0.0952381 0
0.321839 0.142857 0
0.321839 0.190476 0
0.321839 0.238095 0
0.321839 0.285714 0
0.321839 0.333333 0
0.321839 0.380952 0
0.321839 0.428571 0
0.321839 0.47619 0
0.321839 0.52381 0
0.321839 0.571429 0
0.321839 0.619048 0
0.321839 0.666667 0
0.321839 0.714286 0
0.321839 0.761905 0
0.321839 0.809524 0
0.321839 0.857143 0
0.321839 0.904762 0
0.321839 0.952381 0
0.321839 1 0
0.367816 0 0
0.367816 0.047619 0
0.367816 0.0952381 0
0.367816 0.142857 0
0.367816 0.190476 0
0.367816 0.238095 0
0.367816 0.285714 0
0.367816 0.333333 0
0.367816 0.380952 0
0.367816 0.428571 0
0.367816 0.47619 0
0.367816 0.52381 0
0.367816 0.571429 0
0.367816 0.619048 0
0.367816 0.666667 0
0.367816 0.714286 0
0.367816 0.761905 0
0.367816 0.809524 0
0.367816 0.857143 0
0.367816 0.904762 0
0.367816 0.952381 0
0.367816 1 0
0.413793 0 0
0.413793 0.047619 0
0.413793 0.0952381 0
0.413793 0.142857 0
0.413793 0.190476 0
0.413793 0.238095 0
0.413793 0.285714 0
0.413793 0.333333 0
0.413793 0.380952 0
0.413793 0.428571 0
0.413793 0.47619 0
0.413793 0.52381 0
0.413793 0.571429 0
0.413793 0.619048 0
0.413793 0.666667 0
0.413793 0.714286 0
0.413793 0.761905 0
0.413793 0.809524 0
0.413793 0.857143 0
0.413793 0.904762 0
0.413793 0.952381 0
0.413793 1 0
0.45977 0 0
0.45977 0.047619 0
0.45977 0.0952381 0
0.45977 0.142857 0
0.45977 0.190476 0
0.45977 0.238095 0
0.45977 0.285714 0
0.45977 0.333333 0
0.45977 0.380952 0
0.45977 0.428571 0
0.45977 0.47619 0
0.45977 0.52381 0
0.45977 0.571429 0
0.45977 0.619048 0
0.45977 0.666667 0
0.45977 0.714286 0
0.45977 0.761905 0
0.45977 0.809524 0
0.45977 0.857143 0
0.45977 0.904762 0
0.45977 0.952381 0
0.45977 1 0
0.505747 0 0
0.505747 0.047619 0
0.505747 0.0952381 0
0.505747 0.142857 0
0.505747 0.190476 0
0.505747 0.238095 0
0.505747 0.285714 0
0.505747 0.333333 0
0.505747 0.380952 0
0.505747 0.428571 0
0.505747 0.47619 0
0.505747 0.52381 0
0.505747 0.571429 0
0.505747 0.619048 0
0.505747 0.666667 0
0.505747 0.714286 0
0.505747 0.761905 0
0.505747 0.809524 0
0.505747 0.857143 0
0.505747 0.904762 0
0.505747 0.952381 0
0.505747 1 0
0.551724 0 0
0.551724 0.047619 0
0.551724 0.0952381 0
0.551724 0.142857 0
0.551724 0.190476 0
0.551724 0.238095 0
0.551724 0.285714 0
0.551724 0.333333 0
0.551724 0.380952 0
0.551724 0.428571 0
0.551724 0.47619 0
0.551724 0.52381 0
0.551724 0.571429 0
0.551724 0.619048 0
0.551724 0.666667 0
0.551724 0.714286 0
0.551724 0.761905 0
0.551724 0.809524 0
0.551724 0.857143 0
0.551724 0.904762 0
0.551724 0.952381 0
0.551724 1 0
0.597701 0 0
0.597701 0.047619 0
0.597701 0.0952381 0
0.597701 0.142857 0
0.597701 0.190476 0
0.597701 0.238095 0
0.597701 0.285714 0
0.597701 0.333333 0
0.597701 0.380952 0
0.597701 0.428571 0
0.597701 0.47619 0
0.597701 0.52381 0
0.597701 0.571429 0
0.597701 0.619048 0
0.597701 0.666667 0
0.597701 0.714286 0
0.597701 0.761905 0
0.597701 0.809524 0
0.597701 0.857143 0
0.597701 0.904762 0
0.597701 0.952381 0
0.597701 1 0
0.643678 0 0
0.643678 0.047619 0
0.643678 0.0952381 0
0.643678 0.142857 0
0.643678 0.190476 0
0.643678 0.238095 0
0.643678 0.285714 0
0.643678 0.333333 0
0.643678 0.380952 0
0.643678 0.428571 0
0.643678 0.47619 0
0.643678 0.52381 0
0.643678 0.571429 0
0.643678 0.619048 0
0.643678 0.666667 0
0.643678 0.714286 0
0.643678 0.761905 0
0.643678 0.809524 0
0.643678 0.857143 0
0.643678 0.904762 0
0.643678 0.952381 0
0.643678 1 0
0.689655 0 0
0.689655 0.047619 0
0.689655 0.0952381 0
0.689655 0.142857 0
0.689655 0.190476 0
0.689655 0.238095 0
0.689655 0.285714 0
0.689655 0.333333 0
0.689655 0.380952 0
0.689655 0.428571 0
0.689655 0.47619 0
0.689655 0.52381 0
0.689655 0.571429 0
0.689655 0.619048 0
0.689655 0.666667 0
0.689655 0.714286 0
0.689655 0.761905 0
0.689655 0.809524 0
0.689655 0.857143 0
0.689655 0.904762 0
0.689655 0.952381 0
0.689655 1 0
0.735632 0 0
0.735632 0.047619 0
0.735632 0.0952381 0
0.735632 0.142857 0
0.735632 0.190476 0
0.735632 0.238095 0
0.735632 0.285714 0
0.735632 0.333333 0
0.735632 0.380952 0
0.735632 0.428571 0
0.735632 0.47619 0
0.735632 0.52381 0
0.735632 0.571429 0
0.735632 0.619048 0
0.735632 0.666667 0
0.735632 0.714286 0
0.735632 0.761905 0
0.735632 0.809524 0
0.735632 0.857143 0
0.735632 0.904762 0
0.735632 0.952381 0
0.735632 1 0
0.781609 0 0
0.781609 0.047619 0
0.781609 0.0952381 0
0.781609 0.142857 0
0.781609 0.190476 0
0.781609 0.238095 0
0.781609 0.285714 0
0.781609 0.333333 0
0.781609 0.380952 0
0.781609 0.428571 0
0.781609 0.47619 0
0.781609 0.52381 0
0.781609 0.571429 0
0.781609 0.619048 0
0.781609 0.666667 0
0.781609 0.714286 0
0.781609 0.761905 0
0.781609 0.809524 0
0.781609 0.857143 0
0.781609 0.904762 0
0.781609 0.952381 0
0.781609 1 0
0.827586 0 0
0.827586 0.047619 0
0.827586 0.0952381 0
0.827586 0.142857 0
0.827586 0.190476 0
0.827586 0.238095 0
0.827586 0.285714 0
0.827586 0.333333 0
0.827586 0.380952 0
0.827586 0.428571 0
0.827586 0.47619 0
0.827586 0.52381 0
0.827586 0.571429 0
0.827586 0.619048 0
0.827586 0.666667 0
0.827586 0.714286 0
0.827586 0.761905 0
0.827586 0.809524 0
0.827586 0.857143 0
0.827586 0.904762 0
0.827586 0.952381 0
0.827586 1 0
0.873563 0 0
0.873563 0.047619 0
0.873563 0.0952381 0
0.873563 0.142857 0
0.873563 0.190476 0
0.873563 0.238095 0
0.873563 0.285714 0
0.873563 0.333333 0
0.873563 0.380952 0
0.873563 0.428571 0
0.873563 0.47619 0
0.873563 0.52381 0
0.873563 0.571429 0
0.873563 0.619048 0
0.873563 0.666667 0
0.873563 0.714286 0
0.873563 0.761905 0
0.873563 0.809524 0
0.873563 0.857143 0
0.873563 0.904762 0
0.873563 0.952381 0
0.873563 1 0
0.91954 0 0
0.91954 0.047619 0
0.91954 0.0952381 0
0.91954 0.142857 0
0.91954 0.190476 0
0.91954 0.238095 0
0.91954 0.285714 0
0.91954 0.333333 0
0.91954 0.380952 0
0.91954 0.428571 0
0.91954 0.47619 0
0.91954 0.52381 0
0.91954 0.571429 0
0.91954 0.619048 0
0.91954 0.666667 0
0.91954 0.714286 0
0.91954 0.761905 0
0.91954 0.809524 0
0.91954 0.857143 0
0.91954 0.904762 0
0.91954 0.952381 0
0.91954 1 0
0.965517 0 0
0.965517 0.047619 0
0.965517 0.0952381 0
0.965517 0.142857 0
0.965517 0.190476 0
0.965517 0.238095 0
0.965517 0.285714 0
0.965517 0.333333 0
0.965517 0.380952 0
0.965517 0.428571 0
0.965517 0.47619 0
0.965517 0.52381 0
0.965517 0.571429 0
0.965517 0.619048 0
0.965517 0.666667 0
0.965517 0.714286 0
0.965517 0.761905 0
0.965517 0.809524 0
0.965517 0.857143 0
0.965517 0.904762 0
0.965517 0.952381 0
0.965517 1 0
1.01149 0 0
1.01149 0.047619 0
1.01149 0.0952381 0
1.01149 0.142857 0
1.01149 0.190476 0
1.01149 0.238095 0
1.01149 0.285714 0
1.01149 0.333333 0
1.01149 0.380952 0
1.01149 0.428571 0
1.01149 0.47619 0
1.01149 0.52381 0
1.01149 0.571429 0
1.01149 0.619048 0
1.01149 0.666667 0
1.01149 0.714286 0
1.01149 0.761905 0
1.01149 0.809524 0
1.01149 0.857143 0
1.01149 0.904762 0
1.01149 0.952381 0
1.01149 1 0
1.05747 0 0
1.05747 0.047619 0
1.05747 0.0952381 0
1.05747 0.142857 0
1.05747 0.190476 0
1.05747 0.238095 0
1.05747 0.285714 0
1.05747 0.333333 0
1.05747 0.380952 0
1.05747 0.428571 0
1.05747 0.47619 0
1.05747 0.52381 0
1.05747 0.571429 0
1.05747 0.619048 0
1.05747 0.666667 0
1.05747 0.714286 0
1.05747 0.761905 0
1.05747 0.809524 0
1.05747 0.857143 0
1.05747 0.904762 0
1.05747 0.952381 0
1.05747 1 0
1.10345 0 0
1.10345 0.047619 0
1.10345 0.0952381 0
1.10345 0.142857 0
1.10345 0.190476 0
1.10345 0.238095 0
1.10345 0.285714 0
1.10345 0.333333 0
1.10345 0.380952 0
1.10345 0.428571 0
1.10345 0.47619 0
1.10345 0.52381 0
1.10345 0.571429 0
[...]
POINT_DATA 1913
VECTORS velocity[m/s] double
-0 0.209793 0
0 0.209793 0
0 0.210167 0
0 0.182148 0
0 0.152195 0
0 0.12382 0
0 0.0971899 0
0 0.0719654 0
0 0.0477231 0
0 0.0240412 0
0 0.000510273 0
0 -0.0232819 0
0 -0.0477771 0
0 -0.0734821 0
0 -0.101017 0
0 -0.131179 0
0 -0.165038 0
0 -0.204049 0
0 -0.249768 0
0 -0.298975 0
0 -0.307552 0
-0.870617 0.18542 0
0.87062 0.0016354 0
1.07282 0.18542 0
1.10023 0.209504 0
1.10209 0.185562 0
1.10057 0.154568 0
1.09888 0.125174 0
1.09752 0.0980052 0
1.09657 0.0724894 0
1.09602 0.0480591 0
1.09587 0.0242333 0
1.09611 0.000577774 0
1.09678 -0.0233324 0
1.09794 -0.0479482 0
1.09969 -0.0737884 0
1.10222 -0.101497 0
1.10577 -0.131935 0
1.11073 -0.166311 0
1.1172 -0.206061 0
1.12055 -0.250341 0
1.08131 -0.282664 0
0.776076 -0.233587 0
-0.693178 0.144759 0
0.693181 0.0012968 0
1.04957 0.144759 0
1.12335 0.190464 0
1.13203 0.179727 0
1.12896 0.152723 0
1.12512 0.124195 0
1.12216 0.0973042 0
1.12016 0.0720262 0
1.11903 0.0478451 0
1.11872 0.0242751 0
1.11921 0.000888614 0
1.12056 -0.0227223 0
1.1229 -0.0469831 0
1.12645 -0.0723778 0
1.13161 -0.099501 0
1.13897 -0.129115 0
1.14912 -0.162055 0
1.15996 -0.198064 0
1.15176 -0.230394 0
1.03393 -0.2314 0
0.55055 -0.145303 0
-0.554672 0.10555 0
0.554674 0.000944885 0
1.00544 0.10555 0
1.13372 0.162186 0
1.15811 0.165643 0
1.1565 0.146033 0
1.15109 0.120525 0
1.14658 0.0949974 0
1.14352 0.0705789 0
1.1418 0.0470971 0
1.1413 0.0241695 0
1.14201 0.00142193 0
1.14399 -0.0215037 0
1.14742 -0.0449748 0
1.15265 -0.0693968 0
1.16021 -0.0952365 0
1.17078 -0.12297 0
1.18389 -0.152593 0
1.19118 -0.181432 0
1.15274 -0.197947 0
0.95081 -0.173734 0
0.410263 -0.0830117 0
-0.453682 0.0738069 0
0.453684 0.0006601 0
0.950766 0.0738075 0
1.13039 0.132548 0
1.17704 0.147072 0
1.18114 0.135622 0
1.17574 0.11447 0
1.17016 0.0912232 0
1.16619 0.0682366 0
1.16394 0.0458635 0
1.16327 0.0239225 0
1.16415 0.00213831 0
1.16665 -0.0197702 0
1.17101 -0.0420883 0
1.1776 -0.0651131 0
1.18699 -0.0891302 0
1.19939 -0.114219 0
1.21174 -0.139394 0
1.20713 -0.159957 0
1.12937 -0.16255 0
0.863222 -0.125173 0
0.330119 -0.0472819 0
-0.383066 0.0504202 0
0.383067 0.000450575 0
0.894056 0.0504209 0
1.11637 0.105745 0
1.1881 0.127344 0
1.20157 0.123154 0
1.19819 0.106755 0
1.19236 0.086329 0
1.1878 0.0651872 0
1.18513 0.0442384 0
1.18431 0.0235549 0
1.18531 0.00299006 0
1.18821 -0.0176449 0
1.19324 -0.0385423 0
1.2008 -0.0598794 0
1.21122 -0.0817426 0
1.2237 -0.103799 0
1.2316 -0.124212 0
1.20964 -0.137112 0
1.09329 -0.129862 0
0.788022 -0.0889711 0
0.284474 -0.0281124 0
-0.334828 0.0342755 0
0.334828 0.00030608 0
0.840646 0.0342763 0
1.09552 0.083383 0
1.19216 0.108581 0
1.21741 0.110086 0
1.21792 0.0981727 0
1.21278 0.0807377 0
1.20803 0.0616635 0
1.2051 0.042339 0
1.20417 0.0230964 0
1.20524 0.00392746 0
1.20839 -0.0152611 0
1.21385 -0.0345701 0
1.22191 -0.0540616 0
1.23253 -0.0736331 0
1.24341 -0.0925899 0
1.24406 -0.108496 0
1.20264 -0.115156 0
1.05381 -0.102085 0
0.729268 -0.0633202 0
0.257337 -0.0176987 0
-0.302038 0.023616 0
0.302038 0.000210746 0
0.793238 0.0236169 0
1.0712 0.0656005 0
1.19071 0.0918355 0
1.22891 0.0974077 0
1.23476 0.0893772 0
1.2312 0.0748355 0
1.2267 0.0578876 0
1.22369 0.0402789 0
1.22268 0.0225758 0
1.22377 0.00490239 0
1.22704 -0.0127458 0
1.23267 -0.0303881 0
1.24081 -0.0479856 0
1.25084 -0.0652727 0
1.25878 -0.0812748 0
1.2505 -0.0932284 0
1.19003 -0.0952344 0
1.01639 -0.0794572 0
0.685225 -0.0453832 0
0.240254 -0.0117067 0
-0.279448 0.0167434 0
0.279447 0.000149314 0
0.752708 0.0167445 0
1.04588 0.0518419 0
1.18533 0.077434 0
1.23667 0.0856654 0
1.24881 0.0808107 0
1.24757 0.0689131 0
1.2437 0.0540348 0
1.24079 0.0381489 0
1.23975 0.0220136 0
1.24082 0.00587 0
1.24408 -0.0102096 0
1.24967 -0.0261771 0
1.25751 -0.0419101 0
1.26629 -0.0570126 0
1.27033 -0.070318 0
1.25244 -0.0789691 0
1.1748 -0.0777475 0
0.983496 -0.0613763 0
0.652716 -0.0327322 0
0.228957 -0.00799104 0
-0.263435 0.012321 0
0.263432 0.000109805 0
0.718826 0.0123223 0
1.02117 0.041329 0
1.17739 0.0652966 0
1.24137 0.075079 0
1.2603 0.0727192 0
1.26194 0.0631532 0
1.25905 0.0502204 0
1.25637 0.0360079 0
1.25535 0.0214179 0
1.25635 0.00678911 0
1.2595 -0.00774288 0
1.26487 -0.0220763 0
1.2721 -0.0360229 0
1.27914 -0.0490889 0
1.27868 -0.0599976 0
1.25127 -0.0659773 0
1.159 -0.0626768 0
0.955846 -0.0470045 0
0.628834 -0.0236202 0
0.221248 -0.00551274 0
-0.251653 0.00942214 0
0.25165 8.3923e-05 0
0.690825 0.00942364 0
0.998037 0.0333042 0
1.16795 0.0551527 0
1.24365 0.065662 0
1.26954 0.0652004 0
1.27443 0.0576453 0
1.27278 0.0465036 0
1.27047 0.0338829 0
1.26948 0.0207838 0
1.27038 0.0076223 0
1.27335 -0.00541527 0
1.27834 -0.0181856 0
1.28472 -0.03045 0
1.28968 -0.041646 0
1.28446 -0.0504574 0
1.24809 -0.0543234 0
1.14388 -0.0498089 0
0.933274 -0.0355458 0
0.611358 -0.0168791 0
0.215932 -0.00375355 0
-0.242645 0.00745292 0
0.24264 6.6353e-05 0
0.667774 0.00745473 0
0.976948 0.0271238 0
1.15781 0.0466676 0
1.2441 0.0573133 0
1.27684 0.0582531 0
1.28519 0.0524106 0
1.28497 0.0428996 0
1.28312 0.0317757 0
1.28219 0.0200964 0
1.28298 0.00833613 0
1.28568 -0.00327882 0
1.29019 -0.0145728 0
1.29554 -0.025269 0
1.2982 -0.0347625 0
1.2882 -0.0417547 0
1.24374 -0.0439749 0
1.13011 -0.0388678 0
0.915258 -0.0263444 0
0.598691 -0.0117558 0
0.212314 -0.00244223 0
-0.235522 0.00604412 0
0.235515 5.37929e-05 0
0.648789 0.00604657 0
0.958084 0.0222696 0
1.14754 0.0394999 0
1.2432 0.0498723 0
1.28249 0.0518145 0
1.29438 0.0474228 0
1.29571 0.0393916 0
1.2944 0.0296693 0
1.29355 0.0193339 0
1.2942 0.00890115 0
1.29659 -0.00137073 0
1.30052 -0.0112805 0
1.30471 -0.0205232 0
1.30496 -0.0284738 0
1.29035 -0.033896 0
1.23881 -0.0348528 0
1.11803 -0.0295853 0
0.901179 -0.0189019 0
0.589706 -0.00777686 0
0.209963 -0.00143169 0
-0.229747 0.00496345 0
0.229738 4.41664e-05 0
0.633131 0.00496708 0
0.941453 0.0183304 0
1.13753 0.0333258 0
1.24133 0.0431497 0
1.28674 0.0457837 0
1.30214 0.0426241 0
1.30511 0.0359409 0
1.30439 0.0275336 0
1.30363 0.0184698 0
1.30412 0.00929201 0
1.30617 0.000283749 0
1.30945 -0.00833254 0
1.31239 -0.0162318 0
1.3102 -0.022788 0
1.29128 -0.0268611 0
1.23373 -0.0268652 0
1.10772 -0.0217327 0
0.890445 -0.0128604 0
0.583586 -0.00465102 0
0.208588 -0.000641421 0
-0.225006 0.00406208 0
0.224994 3.61445e-05 0
0.620235 0.00406747 0
0.926981 0.0149883 0
1.12805 0.0278564 0
1.23879 0.0369524 0
1.28979 0.0400427 0
1.3086 0.0379394 0
1.31323 0.0324954 0
1.31314 0.0253309 0
1.3125 0.0174764 0
1.31283 0.00948779 0
1.31449 0.00166919 0
1.31709 -0.00573874 0
1.31873 -0.0123977 0
1.31414 -0.0176971 0
1.2913 -0.0206187 0
1.22879 -0.0199258 0
1.09916 -0.0151303 0
0.882526 -0.00797347 0
0.579722 -0.00220155 0
0.207976 -2.75339e-05 0
-0.221129 0.00324937 0
0.221111 2.89172e-05 0
0.609697 0.00325687 0
0.914563 0.0120178 0
1.11927 0.0228635 0
1.23582 0.0311144 0
1.29183 0.0344819 0
1.31387 0.033295 0
1.32016 0.0290032 0
1.32073 0.0230244 0
1.32022 0.0163288 0
1.32038 0.00947347 0
1.32165 0.00277868 0
1.32352 -0.00349885 0
1.32385 -0.00901372 0
1.31696 -0.013186 0
1.29063 -0.0151365 0
1.22416 -0.0139634 0
1.09226 -0.0096449 0
0.87696 -0.00407468 0
0.577631 -0.000319607 0
0.207957 0.000434699 0
-0.218029 0.00248165 0
0.218004 2.20934e-05 0
0.601245 0.00249118 0
0.904098 0.00929092 0
1.11131 0.0182072 0
1.23257 0.0255317 0
1.29298 0.0290331 0
1.31802 0.0286441 0
1.32593 0.0254304 0
1.32721 0.0205903 0
1.32684 0.0150125 0
1.32685 0.00924273 0
1.32772 0.00361319 0
1.32885 -0.00160602 0
1.32789 -0.00606887 0
1.31885 -0.00923934 0
1.28951 -0.0103889 0
1.22 -0.00892409 0
1.08688 -0.00517911 0
0.873342 -0.00104783 0
0.57691 0.00106805 0
0.208385 0.00076165 0
-0.215665 0.00175325 0
0.215631 1.562e-05 0
0.594686 0.00176422 0
0.895496 0.00677167 0
1.10425 0.0138504 0
1.2292 0.0201882 0
1.29336 0.0236959 0
1.32113 0.0239911 0
1.33061 0.02178 0
1.3326 0.0180304 0
1.33242 0.0135305 0
1.33229 0.0088015 0
1.33277 0.0041816 0
1.33317 -4.9502e-05 0
1.33096 -0.00355232 0
1.31997 -0.00584648 0
1.2881 -0.00635866 0
1.21639 -0.00476791 0
1.0829 -0.00165728 0
0.871307 0.00119802 0
0.577214 0.00202051 0
0.209128 0.000967819 0
-0.213998 0.00108401 0
0.213953 9.67114e-06 0
0.589858 0.00109544 0
0.888668 0.00449402 0
1.09814 0.00984738 0
1.22582 0.0151578 0
1.29309 0.0185485 0
1.32327 0.0194036 0
1.33424 0.0181035 0
1.33695 0.0153816 0
1.33699 0.0119095 0
1.33676 0.00817062 0
1.33686 0.00450091 0
1.33656 0.00118387 0
1.33318 -0.00145549 0
1.32047 -0.00300195 0
1.28657 -0.00303455 0
1.2134 -0.00146029 0
1.08015 0.000990237 0
0.870521 0.00274762 0
0.578239 0.00259534 0
0.21007 0.00106914 0
-0.212971 0.000504058 0
0.212916 4.51392e-06 0
0.586585 0.000514872 0
0.883507 0.00252622 0
1.09302 0.00630722 0
1.22255 0.0105779 0
1.29227 0.0137324 0
1.32453 0.0150061 0
1.33688 0.0144985 0
1.34031 0.0127155 0
1.34061 0.0102006 0
1.34031 0.00738622 0
1.34007 0.00459615 0
1.33911 0.00210979 0
1.33468 0.000229206 0
1.32051 -0.000701676 0
1.28506 -0.000403615 0
1.21104 0.0010395 0
1.07847 0.00284065 0
0.870676 0.00369131 0
0.57972 0.00285425 0
0.211111 0.00108394 0
-0.212501 3.97921e-05 0
0.212435 3.8274e-07 0
0.58465 4.90531e-05 0
0.879864 0.000933352 0
1.0889 0.00334443 0
1.21951 0.0066038 0
1.29105 0.00941603 0
1.32503 0.0109537 0
1.33861 0.0110926 0
1.34274 0.0101287 0
1.34334 0.00847345 0
1.34301 0.00649675 0
1.34248 0.00449957 0
1.34094 0.0027478 0
1.33559 0.00151253 0
1.32023 0.00106438 0
1.28368 0.00155882 0
1.20931 0.00278896 0
1.07765 0.00398725 0
0.871492 0.00412942 0
0.581437 0.00286334 0
0.212165 0.00103228 0
-0.212475 -0.000295465 0
0.2124 -2.60331e-06 0
0.583805 -0.000288348 0
0.877544 -0.000250418 0
1.08576 0.00103543 0
1.21681 0.00335957 0
1.28957 0.00575035 0
1.3249 0.00739723 0
1.33954 0.00801674 0
1.34435 0.00772507 0
1.34525 0.0068052 0
1.34495 0.00555723 0
1.34418 0.00424895 0
1.34214 0.00312321 0
1.33603 0.00241359 0
1.31976 0.00231999 0
1.2825 0.0028976 0
1.20816 0.00386855 0
1.07752 0.00454122 0
0.872722 0.00417014 0
0.583213 0.00268996 0
0.21317 0.000934515 0
-0.212769 -0.000504476 0
0.212688 -4.46781e-06 0
0.583776 -0.000499688 0
0.87631 -0.0010336 0
1.08353 -0.000606605 0
1.21451 0.000902791 0
1.28799 0.00283117 0
1.32431 0.00444842 0
1.33983 0.00537847 0
1.34525 0.00559596 0
1.34646 0.00526795 0
1.34622 0.0046221 0
1.34527 0.00388498 0
1.34283 0.00326822 0
1.33612 0.00296387 0
1.31921 0.00310787 0
1.28157 0.00368147 0
1.20752 0.00438132 0
1.07789 0.00462688 0
0.874159 0.00392317 0
0.584916 0.00239803 0
0.214079 0.000809614 0
-0.213264 -0.000603758 0
0.213178 -5.35663e-06 0
0.584299 -0.000601131 0
0.875906 -0.00146386 0
1.08208 -0.00163409 0
1.21265 -0.000787754 0
1.28643 0.000679287 0
1.32342 0.00215855 0
1.33963 0.00324178 0
1.34557 0.00380473 0
1.34709 0.0039176 0
1.34694 0.00373852 0
1.34587 0.00344826 0
1.34313 0.00322172 0
1.33599 0.00320841 0
1.31867 0.00349028 0
1.2809 0.00400064 0
1.20729 0.00444627 0
1.07858 0.00437242 0
0.875639 0.00349166 0
0.586457 0.00204367 0
0.214869 0.000673784 0
-0.213853 -0.000618204 0
0.213765 -5.49034e-06 0
0.58514 -0.000617335 0
0.876078 -0.00161452 0
1.08127 -0.00214933 0
1.21124 -0.00180228 0
1.28501 -0.000758202 0
1.32238 0.000513179 0
1.33909 0.00161929 0
1.34547 0.00237846 0
1.34727 0.00278716 0
1.34723 0.00294167 0
1.3461 0.00297639 0
1.34315 0.00302733 0
1.33573 0.00320355 0
1.31818 0.00354465 0
1.28047 0.003959 0
1.20737 0.00418756 0
1.07943 0.00389925 0
0.877045 0.00296497 0
0.587787 0.00167204 0
0.215526 0.000539638 0
-0.214456 -0.000575131 0
0.214367 -5.11142e-06 0
0.586111 -0.000575518 0
0.876602 -0.00156805 0
1.08094 -0.00227997 0
1.21024 -0.0022756 0
1.28379 -0.00158994 0
1.32132 -0.000557672 0
1.33837 0.000476317 0
1.34508 0.00130851 0
1.34713 0.00188547 0
1.3472 0.00225271 0
1.34606 0.00250151 0
1.34299 0.0027302 0
1.3354 0.00301196 0
1.31779 0.00335586 0
1.28026 0.00366353 0
1.20765 0.0037229 0
1.08034 0.00331261 0
0.8783 0.0024139 0
0.588887 0.00131603 0
0.216054 0.00041596 0
-0.215018 -0.000499519 0
0.214929 -4.44187e-06 0
0.587077 -0.000500671 0
0.877297 -0.00140183 0
1.08094 -0.00215479 0
1.20959 -0.00235837 0
1.2828 -0.00195413 0
1.32033 -0.00115972 0
1.33757 -0.000256221 0
1.34453 0.000557742 0
1.34678 0.00120051 0
1.34697 0.00167945 0
1.34584 0.00204881 0
1.34272 0.00237328 0
1.33508 0.00269636 0
1.3175 0.00300733 0
1.28021 0.00321369 0
1.20805 0.00315383 0
1.08122 0.00269565 0
0.879367 0.00188901 0
0.589763 0.000996723 0
0.216463 0.000307972 0
-0.215507 -0.000411196 0
0.215419 -3.65816e-06 0
0.587954 -0.000412707 0
0.878031 -0.00117907 0
1.08115 -0.00188582 0
1.2092 -0.00219247 0
1.28204 -0.00199266 0
1.31946 -0.00141221 0
1.33679 -0.000665312 0
1.34392 7.13917e-05 0
1.34633 0.000705523 0
1.34662 0.00121873 0
1.34554 0.00163594 0
1.34242 0.00199404 0
1.33479 0.00231369 0
1.3173 0.00257326 0
1.28027 0.00269347 0
1.2085 0.00255988 0
1.082 0.00210741 0
0.880235 0.00142172 0
0.590434 0.000725009 0
0.216767 0.000217937 0
-0.215911 -0.000323924 0
0.215824 -2.8829e-06 0
0.588701 -0.0003255 0
0.878721 -0.000945213 0
1.08145 -0.00155898 0
1.20902 -0.00189505 0
1.28149 -0.00183172 0
1.31875 -0.00142907 0
1.33609 -0.000840302 0
1.34331 -0.000211718 0
1.34584 0.000366092 0
1.34622 0.0008599 0
1.3452 0.00127337 0
1.34211 0.00162221 0
1.33454 0.00191091 0
1.3172 0.00211349 0
1.28041 0.00216694 0
1.20895 0.00199683 0
1.08267 0.00158429 0
0.880914 0.00102745 0
0.59093 0.000503939 0
0.216984 0.00014591 0
-0.216231 -0.000245845 0
0.216145 -2.18876e-06 0
0.589306 -0.000247301 0
0.87932 -0.000728577 0
1.08178 -0.00123233 0
1.20896 -0.00155201 0
1.28111 -0.00157089 0
1.31819 -0.00130639 0
1.33549 -0.000861374 0
1.34276 -0.000350095 0
1.34537 0.000146286 0
1.34583 0.00058817 0
1.34487 0.000965407 0
1.34184 0.00127891 0
1.33435 0.00152284 0
1.31715 0.00167133 0
1.28058 0.00167759 0
1.20935 0.00149843 0
1.08322 0.00114384 0
0.881426 0.000709579 0
0.591282 0.000331184 0
0.217131 9.04872e-05 0
-0.216475 -0.000180664 0
0.216392 -1.60896e-06 0
0.589777 -0.000181908 0
0.879813 -0.000543535 0
1.0821 -0.000939429 0
1.20899 -0.00121877 0
1.28086 -0.00128033 0
1.31776 -0.00111693 0
1.335 -0.000793111 0
1.34229 -0.000393712 0
1.34495 1.31568e-05 0
1.34547 0.000387518 0
1.34457 0.000711547 0
1.34161 0.000976954 0
1.33421 0.00117224 0
1.31715 0.00127422 0
1.28076 0.00125049 0
1.2097 0.00108041 0
1.08364 0.000789674 0
0.881797 0.000463505 0
0.591521 0.000201237 0
0.217224 4.94558e-05 0
-0.216658 -0.000129041 0
0.216575 -1.14954e-06 0
0.590132 -0.000130046 0
0.880201 -0.000394536 0
1.08237 -0.000695237 0
1.20905 -0.000925573 0
1.2807 -0.00100354 0
1.31746 -0.000910092 0
1.33462 -0.000682625 0
1.3419 -0.000381399 0
1.34459 -6.0738e-05 0
1.34516 0.000242689 0
1.34432 0.000507992 0
1.34143 0.000722088 0
1.33412 0.000871212 0
1.31718 0.000936115 0
1.28093 0.000896 0
1.20999 0.000745327 0
1.08396 0.000516285 0
0.882056 0.000280162 0
0.591673 0.000107151 0
0.217278 2.02954e-05 0
-0.21679 -8.98351e-05 0
0.216709 -8.00491e-07 0
0.590394 -9.06116e-05 0
0.880498 -0.000279916 0
1.0826 -0.000502293 0
1.20914 -0.000684407 0
1.28062 -0.000763042 0
1.31724 -0.000715404 0
1.33433 -0.000560942 0
1.3416 -0.000340776 0
1.34431 -9.65066e-05 0
1.34491 0.000140362 0
1.34412 0.000348985 0
1.34129 0.000514654 0
1.33407 0.000623607 0
1.31722 0.000660779 0
1.28108 0.000614133 0
1.21021 0.000487309 0
1.0842 0.000313161 0
0.882229 0.00014868 0
0.591763 4.17678e-05 0
0.217303 5.21894e-07 0
-0.216885 -6.10615e-05 0
0.216804 -5.44235e-07 0
0.590582 -6.16423e-05 0
0.880718 -0.000194895 0
1.08278 -0.000356042 0
1.20922 -0.000495653 0
1.28058 -0.000566789 0
1.3171 -0.000547469 0
1.33413 -0.000446112 0
1.34137 -0.000289773 0
1.34408 -0.000109267 0
1.34472 6.96166e-05 0
1.34396 0.000227925 0
1.34119 0.000351368 0
1.33404 0.000427513 0
1.31727 0.000445171 0
1.28121 0.000398483 0
1.21039 0.000295973 0
1.08436 0.000167877 0
0.882338 5.81932e-05 0
0.591808 -1.52643e-06 0
0.217309 -1.21053e-05 0
-0.216952 -4.05288e-05 0
0.216871 -3.61321e-07 0
0.590717 -4.09527e-05 0
0.880879 -0.000133648 0
1.08292 -0.000248753 0
1.20929 -0.000353436 0
1.28057 -0.000413822 0
1.31701 -0.000410887 0
1.33398 -0.000346815 0
1.3412 -0.000238825 0
1.34392 -0.000109138 0
1.34457 2.19209e-05 0
1.34385 0.000138167 0
1.34112 0.000226879 0
1.33402 0.000277576 0
1.31732 0.000282358 0
1.28131 0.000239437 0
1.21052 0.000159327 0
1.08447 6.81311e-05 0
0.882401 -1.10969e-06 0
0.591824 -2.84157e-05 0
0.217303 -1.94839e-05 0
-0.216999 -2.62033e-05 0
0.216919 -2.33674e-07 0
0.590812 -2.65076e-05 0
0.880996 -9.05318e-05 0
1.08303 -0.000172025 0
1.20936 -0.00024937 0
1.28057 -0.00029862 0
1.31695 -0.000304371 0
1.33388 -0.000265661 0
1.34108 -0.000193123 0
1.3438 -0.000102437 0
1.34446 -9.15153e-06 0
1.34377 7.35467e-05 0
1.34108 0.000135001 0
1.33402 0.000166829 0
1.31737 0.000163748 0
1.2814 0.000126451 0
1.21061 6.56502e-05 0
1.08454 2.9155e-06 0
0.882433 -3.74955e-05 0
0.591821 -4.35267e-05 0
0.21729 -2.31441e-05 0
-0.217032 -1.63764e-05 0
0.216952 -1.46097e-07 0
0.590879 -1.6593e-05 0
0.88108 -6.06882e-05 0
1.08311 -0.000118175 0
1.20941 -0.000174849 0
1.28058 -0.000214018 0
1.31692 -0.000223753 0
1.33382 -0.00020179 0
1.34099 -0.000154519 0
1.34371 -9.28235e-05 0
1.34439 -2.83109e-05 0
1.34372 2.86587e-05 0
1.34106 6.95609e-05 0
1.33403 8.79795e-05 0
1.31741 8.06073e-05 0
1.28146 4.94872e-05 0
1.21068 4.53707e-06 0
1.08459 -3.69776e-05 0
0.882444 -5.75783e-05 0
0.591806 -5.04654e-05 0
0.217273 -2.42692e-05 0
-0.217055 -9.70702e-06 0
0.216976 -8.66515e-08 0
0.590927 -9.86117e-06 0
0.881141 -4.02436e-05 0
1.08317 -8.08288e-05 0
1.20945 -0.000122238 0
1.2806 -0.000152926 0
1.3169 -0.000163933 0
1.33378 -0.0001527 0
1.34094 -0.000122976 0
1.34365 -8.22249e-05 0
1.34434 -3.89458e-05 0
1.34368 -1.03988e-06 0
1.34104 2.49215e-05 0
1.33405 3.42138e-05 0
1.31745 2.4949e-05 0
1.28151 -2.31008e-07 0
1.21072 -3.26671e-05 0
1.08461 -5.88654e-05 0
0.882442 -6.64326e-05 0
0.591786 -5.19384e-05 0
0.217254 -2.3741e-05 0
-0.217072 -5.19411e-06 0
0.216993 -4.64263e-08 0
0.590961 -5.30482e-06 0
0.881185 -2.62733e-05 0
1.08321 -5.50352e-05 0
1.20949 -8.5328e-05 0
1.28061 -0.000109178 0
1.3169 -0.00011999 0
1.33376 -0.000115396 0
1.34091 -9.75499e-05 0
1.34362 -7.15309e-05 0
1.34431 -4.34671e-05 0
1.34366 -1.92397e-05 0
1.34104 -3.76053e-06 0
1.33406 -3.86154e-07 0
1.31748 -1.00328e-05 0
1.28154 -2.99304e-05 0
1.21075 -5.28132e-05 0
1.08462 -6.83288e-05 0
0.882433 -6.78135e-05 0
0.591764 -4.99088e-05 0
0.217236 -2.21937e-05 0
-0.217084 -2.12074e-06 0
0.217005 -1.9034e-08 0
0.590986 -2.20163e-06 0
0.881218 -1.66614e-05 0
1.08325 -3.7133e-05 0
1.20951 -5.9364e-05 0
1.28063 -7.78222e-05 0
1.3169 -8.77068e-05 0
1.33374 -8.70257e-05 0
1.34089 -7.69948e-05 0
1.3436 -6.10584e-05 0
1.34429 -4.35819e-05 0
1.34365 -2.88569e-05 0
1.34104 -2.04601e-05 0
1.33407 -2.06948e-05 0
1.3175 -2.98481e-05 0
1.28157 -4.52947e-05 0
1.21077 -6.11118e-05 0
1.08463 -6.94753e-05 0
0.882421 -6.44077e-05 0
0.591742 -4.57521e-05 0
0.21722 -2.00665e-05 0
-0.217093 9.22885e-09 0
0.217014 -5.35265e-11 0
0.591005 -5.1307e-08 0
0.881242 -9.92979e-06 0
1.08327 -2.45159e-05 0
1.20954 -4.08639e-05 0
1.28064 -5.50944e-05 0
1.3169 -6.37262e-05 0
1.33374 -6.51669e-05 0
1.34088 -6.00941e-05 0
1.34358 -5.08434e-05 0
1.34428 -4.04983e-05 0
1.34365 -3.21415e-05 0
1.34105 -2.83209e-05 0
1.33409 -3.05635e-05 0
1.31752 -3.87788e-05 0
1.28159 -5.06275e-05 0
1.21078 -6.13901e-05 0
1.08463 -6.52291e-05 0
0.882407 -5.80733e-05 0
0.591722 -4.03966e-05 0
0.217205 -1.76504e-05 0
-0.2171 1.52848e-06 0
0.217021 1.34808e-08 0
0.591019 1.48192e-06 0
0.881261 -5.07698e-06 0
1.08329 -1.53872e-05 0
1.20955 -2.73684e-05 0
1.28065 -3.8256e-05 0
1.31691 -4.55154e-05 0
1.33374 -4.79087e-05 0
1.34087 -4.58093e-05 0
1.34358 -4.08076e-05 0
1.34427 -3.50719e-05 0
1.34365 -3.07918e-05 0
1.34105 -2.97513e-05 0
1.3341 -3.29295e-05 0
1.31754 -4.00366e-05 0
1.28161 -4.90781e-05 0
1.21079 -5.63668e-05 0
1.08463 -5.7601e-05 0
0.882395 -5.00455e-05 0
0.591705 -3.44393e-05 0
0.217193 -1.51278e-05 0
-0.217106 2.65323e-06 0
0.217027 2.34971e-08 0
0.59103 2.61644e-06 0
0.881275 -1.44374e-06 0
1.08331 -8.544e-06 0
1.20957 -1.71933e-05 0
1.28067 -2.53812e-05 0