# vtk DataFile Version 3.0
vtk output
ASCII
DATASET UNSTRUCTURED_GRID
POINTS 1913 double
0.045977 0 0
0.045977 0.0952381 0
0.045977 0.142857 0
0.045977 0.190476 0
0.045977 0.238095 0
0.045977 0.285714 0
0.045977 0.333333 0
0.045977 0.380952 0
0.045977 0.428571 0
0.045977 0.47619 0
0.045977 0.52381 0
0.045977 0.571429 0
0.045977 0.619048 0
0.045977 0.666667 0
0.045977 0.714286 0
0.045977 0.761905 0
0.045977 0.809524 0
0.045977 0.857143 0
0.045977 0.904762 0
0.045977 0.952381 0
0.045977 1 0
0.091954 0 0
0.091954 0.047619 0
0.091954 0.0952381 0
0.091954 0.142857 0
0.091954 0.190476 0
0.091954 0.238095 0
0.091954 0.285714 0
0.091954 0.333333 0
0.091954 0.380952 0
0.091954 0.428571 0
0.091954 0.47619 0
0.091954 0.52381 0
0.091954 0.571429 0
0.091954 0.619048 0
0.091954 0.666667 0
0.091954 0.714286 0
0.091954 0.761905 0
0.091954 0.809524 0
0.091954 0.857143 0
0.091954 0.904762 0
0.091954 0.952381 0
0.091954 1 0
0.137931 0 0
0.137931 0.047619 0
0.137931 0.0952381 0
0.137931 0.142857 0
0.137931 0.190476 0
0.137931 0.238095 0
0.137931 0.285714 0
0.137931 0.333333 0
0.137931 0.380952 0
0.137931 0.428571 0
0.137931 0.47619 0
0.137931 0.52381 0
0.137931 0.571429 0
0.137931 0.619048 0
0.137931 0.666667 0
0.137931 0.714286 0
0.137931 0.761905 0
0.137931 0.809524 0
0.137931 0.857143 0
0.137931 0.904762 0
0.137931 0.952381 0
0.137931 1 0
0.183908 0 0
0.183908 0.047619 0
0.183908 0.0952381 0
0.183908 0.142857 0
0.183908 0.190476 0
0.183908 0.238095 0
0.183908 0.285714 0
0.183908 0.333333 0
0.183908 0.380952 0
0.183908 0.428571 0
0.183908 0.47619 0
0.183908 0.52381 0
0.183908 0.571429 0
0.183908 0.619048 0
0.183908 0.666667 0
0.183908 0.714286 0
0.183908 0.761905 0
0.183908 0.809524 0
0.183908 0.857143 0
0.183908 0.904762 0
0.183908 0.952381 0
0.183908 1 0
0.229885 0 0
0.229885 0.047619 0
0.229885 0.0952381 0
0.229885 0.142857 0
0.229885 0.190476 0
0.229885 0.238095 0
0.229885 0.285714 0
0.229885 0.333333 0
0.229885 0.380952 0
0.229885 0.428571 0
0.229885 0.47619 0
0.229885 0.52381 0
0.229885 0.571429 0
0.229885 0.619048 0
0.229885 0.666667 0
0.229885 0.714286 0
0.229885 0.761905 0
0.229885 0.809524 0
0.229885 0.857143 0
0.229885 0.904762 0
0.229885 0.952381 0
0.229885 1 0
0.275862 0 0
0.275862 0.047619 0
0.275862 0.0952381 0
0.275862 0.142857 0
0.275862 0.190476 0
0.275862 0.238095 0
0.275862 0.285714 0
0.275862 0.333333 0
0.275862 0.380952 0
0.275862 0.428571 0
0.275862 0.47619 0
0.275862 0.52381 0
0.275862 0.571429 0
0.275862 0.619048 0
0.275862 0.666667 0
0.275862 0.714286 0
0.275862 0.761905 0
0.275862 0.809524 0
0.275862 0.857143 0
0.275862 0.904762 0
0.275862 0.952381 0
0.275862 1 0
0.321839 0 0
0.321839 0.047619 0
0.321839 0.0952381 0
0.321839 0.142857 0
0.321839 0.190476 0
0.321839 0.238095 0
0.321839 0.285714 0
0.321839 0.333333 0
0.321839 0.380952 0
0.321839 0.428571 0
0.321839 0.47619 0
0.321839 0.52381 0
0.321839 0.571429 0
0.321839 0.619048 0
0.321839 0.666667 0
0.321839 0.714286 0
0.321839 0.761905 0
0.321839 0.809524 0
0.321839 0.857143 0
0.321839 0.904762 0
0.321839 0.952381 0
0.321839 1 0
0.367816 0 0
0.367816 0.047619 0
0.367816 0.0952381 0
0.367816 0.142857 0
0.367816 0.190476 0
0.367816 0.238095 0
0.367816 0.285714 0
0.367816 0.333333 0
0.367816 0.380952 0
0.367816 0.428571 0
0.367816 0.47619 0
0.367816 0.52381 0
0.367816 0.571429 0
0.367816 0.619048 0
0.367816 0.666667 0
0.367816 0.714286 0
0.367816 0.761905 0
0.367816 0.809524 0
0.367816 0.857143 0
0.367816 0.904762 0
0.367816 0.952381 0
0.367816 1 0
0.413793 0 0
0.413793 0.047619 0
0.413793 0.0952381 0
0.413793 0.142857 0
0.413793 0.190476 0
0.413793 0.238095 0
0.413793 0.285714 0
0.413793 0.333333 0
0.413793 0.380952 0
0.413793 0.428571 0
0.413793 0.47619 0
0.413793 0.52381 0
0.413793 0.571429 0
0.413793 0.619048 0
0.413793 0.666667 0
0.413793 0.714286 0
0.413793 0.761905 0
0.413793 0.809524 0
0.413793 0.857143 0
0.413793 0.904762 0
0.413793 0.952381 0
0.413793 1 0
0.45977 0 0
0.45977 0.047619 0
0.45977 0.0952381 0
0.45977 0.142857 0
0.45977 0.190476 0
0.45977 0.238095 0
0.45977 0.285714 0
0.45977 0.333333 0
0.45977 0.380952 0
0.45977 0.428571 0
0.45977 0.47619 0
0.45977 0.52381 0
0.45977 0.571429 0
0.45977 0.619048 0
0.45977 0.666667 0
0.45977 0.714286 0
0.45977 0.761905 0
0.45977 0.809524 0
0.45977 0.857143 0
0.45977 0.904762 0
0.45977 0.952381 0
0.45977 1 0
0.505747 0 0
0.505747 0.047619 0
0.505747 0.0952381 0
0.505747 0.142857 0
0.505747 0.190476 0
0.505747 0.238095 0
0.505747 0.285714 0
0.505747 0.333333 0
0.505747 0.380952 0
0.505747 0.428571 0
0.505747 0.47619 0
0.505747 0.52381 0
0.505747 0.571429 0
0.505747 0.619048 0
0.505747 0.666667 0
0.505747 0.714286 0
0.505747 0.761905 0
0.505747 0.809524 0
0.505747 0.857143 0
0.505747 0.904762 0
0.505747 0.952381 0
0.505747 1 0
0.551724 0 0
0.551724 0.047619 0
0.551724 0.0952381 0
0.551724 0.142857 0
0.551724 0.190476 0
0.551724 0.238095 0
0.551724 0.285714 0
0.551724 0.333333 0
0.551724 0.380952 0
0.551724 0.428571 0
0.551724 0.47619 0
0.551724 0.52381 0
0.551724 0.571429 0
0.551724 0.619048 0
0.551724 0.666667 0
0.551724 0.714286 0
0.551724 0.761905 0
0.551724 0.809524 0
0.551724 0.857143 0
0.551724 0.904762 0
0.551724 0.952381 0
0.551724 1 0
0.597701 0 0
0.597701 0.047619 0
0.597701 0.0952381 0
0.597701 0.142857 0
0.597701 0.190476 0
0.597701 0.238095 0
0.597701 0.285714 0
0.597701 0.333333 0
0.597701 0.380952 0
0.597701 0.428571 0
0.597701 0.47619 0
0.597701 0.52381 0
0.597701 0.571429 0
0.597701 0.619048 0
0.597701 0.666667 0
0.597701 0.714286 0
0.597701 0.761905 0
0.597701 0.809524 0
0.597701 0.857143 0
0.597701 0.904762 0
0.597701 0.952381 0
0.597701 1 0
0.643678 0 0
0.643678 0.047619 0
0.643678 0.0952381 0
0.643678 0.142857 0
0.643678 0.190476 0
0.643678 0.238095 0
0.643678 0.285714 0
0.643678 0.333333 0
0.643678 0.380952 0
0.643678 0.428571 0
0.643678 0.47619 0
0.643678 0.52381 0
0.643678 0.571429 0
0.643678 0.619048 0
0.643678 0.666667 0
0.643678 0.714286 0
0.643678 0.761905 0
0.643678 0.809524 0
0.643678 0.857143 0
0.643678 0.904762 0
0.643678 0.952381 0
0.643678 1 0
0.689655 0 0
0.689655 0.047619 0
0.689655 0.0952381 0
0.689655 0.142857 0
0.689655 0.190476 0
0.689655 0.238095 0
0.689655 0.285714 0
0.689655 0.333333 0
0.689655 0.380952 0
0.689655 0.428571 0
0.689655 0.47619 0
0.689655 0.52381 0
0.689655 0.571429 0
0.689655 0.619048 0
0.689655 0.666667 0
0.689655 0.714286 0
0.689655 0.761905 0
0.689655 0.809524 0
0.689655 0.857143 0
0.689655 0.904762 0
0.689655 0.952381 0
0.689655 1 0
0.735632 0 0
0.735632 0.047619 0
0.735632 0.0952381 0
0.735632 0.142857 0
0.735632 0.190476 0
0.735632 0.238095 0
0.735632 0.285714 0
0.735632 0.333333 0
0.735632 0.380952 0
0.735632 0.428571 0
0.735632 0.47619 0
0.735632 0.52381 0
0.735632 0.571429 0
0.735632 0.619048 0
0.735632 0.666667 0
0.735632 0.714286 0
0.735632 0.761905 0
0.735632 0.809524 0
0.735632 0.857143 0
0.735632 0.904762 0
0.735632 0.952381 0
0.735632 1 0
0.781609 0 0
0.781609 0.047619 0
0.781609 0.0952381 0
0.781609 0.142857 0
0.781609 0.190476 0
0.781609 0.238095 0
0.781609 0.285714 0
0.781609 0.333333 0
0.781609 0.380952 0
0.781609 0.428571 0
0.781609 0.47619 0
0.781609 0.52381 0
0.781609 0.571429 0
0.781609 0.619048 0
0.781609 0.666667 0
0.781609 0.714286 0
0.781609 0.761905 0
0.781609 0.809524 0
0.781609 0.857143 0
0.781609 0.904762 0
0.781609 0.952381 0
0.781609 1 0
0.827586 0 0
0.827586 0.047619 0
0.827586 0.0952381 0
0.827586 0.142857 0
0.827586 0.190476 0
0.827586 0.238095 0
0.827586 0.285714 0
0.827586 0.333333 0
0.827586 0.380952 0
0.827586 0.428571 0
0.827586 0.47619 0
0.827586 0.52381 0
0.827586 0.571429 0
0.827586 0.619048 0
0.827586 0.666667 0
0.827586 0.714286 0
0.827586 0.761905 0
0.827586 0.809524 0
0.827586 0.857143 0
0.827586 0.904762 0
0.827586 0.952381 0
0.827586 1 0
0.873563 0 0
0.873563 0.047619 0
0.873563 0.0952381 0
0.873563 0.142857 0
0.873563 0.190476 0
0.873563 0.238095 0
0.873563 0.285714 0
0.873563 0.333333 0
0.873563 0.380952 0
0.873563 0.428571 0
0.873563 0.47619 0
0.873563 0.52381 0
0.873563 0.571429 0
0.873563 0.619048 0
0.873563 0.666667 0
0.873563 0.714286 0
0.873563 0.761905 0
0.873563 0.809524 0
0.873563 0.857143 0
0.873563 0.904762 0
0.873563 0.952381 0
0.873563 1 0
0.91954 0 0
0.91954 0.047619 0
0.91954 0.0952381 0
0.91954 0.142857 0
0.91954 0.190476 0
0.91954 0.238095 0
0.91954 0.285714 0
0.91954 0.333333 0
0.91954 0.380952 0
0.91954 0.428571 0
0.91954 0.47619 0
0.91954 0.52381 0
0.91954 0.571429 0
0.91954 0.619048 0
0.91954 0.666667 0
0.91954 0.714286 0
0.91954 0.761905 0
0.91954 0.809524 0
0.91954 0.857143 0
0.91954 0.904762 0
0.91954 0.952381 0
0.91954 1 0
0.965517 0 0
0.965517 0.047619 0
0.965517 0.0952381 0
0.965517 0.142857 0
0.965517 0.190476 0
0.965517 0.238095 0
0.965517 0.285714 0
0.965517 0.333333 0
0.965517 0.380952 0
0.965517 0.428571 0
0.965517 0.47619 0
0.965517 0.52381 0
0.965517 0.571429 0
0.965517 0.619048 0
0.965517 0.666667 0
0.965517 0.714286 0
0.965517 0.761905 0
0.965517 0.809524 0
0.965517 0.857143 0
0.965517 0.904762 0
0.965517 0.952381 0
0.965517 1 0
1.01149 0 0
1.01149 0.047619 0
1.01149 0.0952381 0
1.01149 0.142857 0
1.01149 0.190476 0
1.01149 0.238095 0
1.01149 0.285714 0
1.01149 0.333333 0
1.01149 0.380952 0
1.01149 0.428571 0
1.01149 0.47619 0
1.01149 0.52381 0
1.01149 0.571429 0
1.01149 0.619048 0
1.01149 0.666667 0
1.01149 0.714286 0
1.01149 0.761905 0
1.01149 0.809524 0
1.01149 0.857143 0
1.01149 0.904762 0
1.01149 0.952381 0
1.01149 1 0
1.05747 0 0
1.05747 0.047619 0
1.05747 0.0952381 0
1.05747 0.142857 0
1.05747 0.190476 0
1.05747 0.238095 0
1.05747 0.285714 0
1.05747 0.333333 0
1.05747 0.380952 0
1.05747 0.428571 0
1.05747 0.47619 0
1.05747 0.52381 0
1.05747 0.571429 0
1.05747 0.619048 0
1.05747 0.666667 0
1.05747 0.714286 0
1.05747 0.761905 0
1.05747 0.809524 0
1.05747 0.857143 0
1.05747 0.904762 0
1.05747 0.952381 0
1.05747 1 0
1.10345 0 0
1.10345 0.047619 0
1.10345 0.0952381 0
1.10345 0.142857 0
1.10345 0.190476 0
1.10345 0.238095 0
1.10345 0.285714 0
1.10345 0.333333 0
1.10345 0.380952 0
1.10345 0.428571 0
1.10345 0.47619 0
1.10345 0.52381 0
1.10345 0.571429 0
[...]
POINT_DATA 1913
VECTORS velocity[m/s] double
-0 0.209457 0
0 0.209457 0
0 0.209382 0
0 0.180968 0
0 0.150634 0
0 0.121873 0
0 0.0948502 0
0 0.0692262 0
0 0.0445833 0
0 0.020507 0
0 -0.00340251 0
0 -0.0275459 0
0 -0.0523512 0
0 -0.07831 0
0 -0.106024 0
0 -0.136271 0
0 -0.170096 0
0 -0.208922 0
0 -0.254253 0
0 -0.302732 0
0 -0.309886 0
-0.872542 0.185233 0
0.872542 0.00163376 0
1.07485 0.185233 0
1.10221 0.208821 0
1.10406 0.184423 0
1.10255 0.153019 0
1.10087 0.123225 0
1.09952 0.0956465 0
1.09857 0.069712 0
1.09802 0.0448585 0
1.09786 0.0206129 0
1.09809 -0.00344902 0
1.09873 -0.02774 0
1.09984 -0.052697 0
1.10153 -0.0788225 0
1.10398 -0.106742 0
1.10743 -0.137295 0
1.11226 -0.171666 0
1.11854 -0.211246 0
1.12158 -0.255066 0
1.08168 -0.286316 0
0.775576 -0.235243 0
-0.695274 0.144679 0
0.695274 0.00129611 0
1.05207 0.144679 0
1.12577 0.189902 0
1.13439 0.178662 0
1.13131 0.15121 0
1.12749 0.122258 0
1.12456 0.0949364 0
1.12257 0.0692138 0
1.12143 0.0445776 0
1.12109 0.0205505 0
1.12154 -0.00328464 0
1.12282 -0.0273227 0
1.12506 -0.0519746 0
1.12849 -0.0777074 0
1.13348 -0.105097 0
1.14062 -0.134883 0
1.15048 -0.167864 0
1.16085 -0.203689 0
1.15175 -0.235353 0
1.03237 -0.234782 0
0.548445 -0.146336 0
-0.556836 0.105546 0
0.556836 0.000944873 0
1.00841 0.105546 0
1.13662 0.161751 0
1.16089 0.164687 0
1.15927 0.144593 0
1.15387 0.118628 0
1.14939 0.0926389 0
1.14635 0.0677408 0
1.14463 0.043761 0
1.14411 0.0203251 0
1.14475 -0.00292957 0
1.14662 -0.0263475 0
1.14991 -0.0502805 0
1.15494 -0.0751165 0
1.16224 -0.101302 0
1.17246 -0.129284 0
1.18507 -0.158991 0
1.19142 -0.187574 0
1.1512 -0.203109 0
0.946975 -0.176831 0
0.407155 -0.0836955 0
-0.455842 0.0738517 0
0.455843 0.000660517 0
0.954143 0.0738517 0
1.13378 0.132241 0
1.18029 0.14626 0
1.18434 0.134299 0
1.17897 0.112653 0
1.17343 0.0889053 0
1.16951 0.0653927 0
1.16726 0.0424657 0
1.16656 0.0199497 0
1.16736 -0.00241802 0
1.16973 -0.0249043 0
1.17389 -0.047778 0
1.18022 -0.0713172 0
1.18926 -0.0957833 0
1.20115 -0.121211 0
1.21266 -0.1465 0
1.20642 -0.166678 0
1.12583 -0.167927 0
0.857052 -0.128091 0
0.326345 -0.0478486 0
-0.385175 0.0504913 0
0.385175 0.00045122 0
0.897768 0.0504913 0
1.12025 0.105564 0
1.19184 0.126708 0
1.20524 0.122003 0
1.2019 0.105073 0
1.19613 0.084098 0
1.19164 0.0623711 0
1.189 0.0407971 0
1.18816 0.0194548 0
1.18907 -0.00179009 0
1.19182 -0.0231108 0
1.19662 -0.044682 0
1.20384 -0.06666 0
1.21381 -0.089099 0
1.22556 -0.111596 0
1.23215 -0.132138 0
1.20763 -0.144484 0
1.08737 -0.135518 0
0.779576 -0.0918551 0
0.280147 -0.0286824 0
-0.336861 0.0343596 0
0.336861 0.000306837 0
0.844594 0.0343596 0
1.09984 0.0833331 0
1.19638 0.108161 0
1.22158 0.109169 0
1.22215 0.0966975 0
1.21711 0.0786573 0
1.21247 0.058925 0
1.2096 0.0388869 0
1.20867 0.0188819 0
1.20966 -0.00108558 0
1.21264 -0.0210924 0
1.21784 -0.0412204 0
1.22551 -0.061507 0
1.23553 -0.0818056 0
1.2454 -0.101317 0
1.24407 -0.117357 0
1.19897 -0.12327 0
1.04521 -0.108123 0
0.718582 -0.0663174 0
0.252453 -0.0183271 0
-0.303982 0.0237113 0
0.303983 0.000211599 0
0.797309 0.0237113 0
1.07586 0.0656936 0
1.19541 0.0916779 0
1.23362 0.0968032 0
1.23957 0.0881978 0
1.23616 0.0729902 0
1.23182 0.0552965 0
1.22892 0.0368665 0
1.22795 0.018275 0
1.22897 -0.000340102 0
1.23208 -0.0189661 0
1.23742 -0.0376019 0
1.24511 -0.0561787 0
1.25437 -0.0743704 0
1.26088 -0.0910551 0
1.24978 -0.103143 0
1.18435 -0.104204 0
1.00485 -0.0860103 0
0.672247 -0.0486309 0
0.234758 -0.0124281 0
-0.281293 0.016857 0
0.281293 0.000150327 0
0.756775 0.016857 0
1.05078 0.0521012 0
1.19046 0.0776006 0
1.24193 0.0854696 0
1.25425 0.0800395 0
1.25325 0.0674124 0
1.24961 0.0516849 0
1.24687 0.0348479 0
1.24592 0.0176729 0
1.24696 0.000416675 0
1.25007 -0.0168303 0
1.25536 -0.0339975 0
1.26267 -0.050926 0
1.27048 -0.0671386 0
1.27256 -0.0812718 0
1.2508 -0.0900627 0
1.16678 -0.0877038 0
0.968758 -0.0685941 0
0.637293 -0.0363587 0
0.222759 -0.00883977 0
-0.265163 0.0124636 0
0.265163 0.000111074 0
0.722746 0.0124636 0
1.02616 0.041787 0
1.18287 0.0658635 0
1.24717 0.0754094 0
1.26644 0.0724954 0
1.26843 0.0621352 0
1.26587 0.048233 0
1.26345 0.0329141 0
1.26258 0.0171043 0
1.26361 0.00116131 0
1.26665 -0.0147599 0
1.27171 -0.0305329 0
1.27832 -0.045925 0
1.28412 -0.0603358 0
1.28104 -0.0722374 0
1.24852 -0.0783734 0
1.14833 -0.073757 0
0.937634 -0.0550405 0
0.610723 -0.0277436 0
0.214224 -0.00652608 0
-0.253236 0.00960405 0
0.253236 8.55388e-05 0
0.694434 0.00960405 0
1.00291 0.0340002 0
1.17365 0.056211 0
1.24999 0.0666584 0
1.27644 0.0656903 0
1.28186 0.0572776 0
1.28066 0.0450281 0
1.27872 0.0311178 0
1.27798 0.0165868 0
1.27898 0.00187606 0
1.28188 -0.0128068 0
1.28657 -0.0272915 0
1.29224 -0.041285 0
1.29561 -0.0540897 0
1.28697 -0.0640801 0
1.24407 -0.0681338 0
1.13026 -0.0621429 0
0.911279 -0.044541 0
0.590237 -0.0216006 0
0.207923 -0.00496734 0
-0.244046 0.00768563 0
0.244046 6.84188e-05 0
0.670879 0.00768563 0
0.981464 0.0281078 0
1.16356 0.0483263 0
1.25092 0.0591392 0
1.28457 0.0596503 0
1.29368 0.0528885 0
1.29409 0.0421126 0
1.29275 0.0294857 0
1.29218 0.0161279 0
1.29316 0.00254811 0
1.29586 -0.0110032 0
1.30008 -0.0243207 0
1.3046 -0.0370617 0
1.30526 -0.0484547 0
1.29088 -0.0568313 0
1.23828 -0.0592861 0
1.11327 -0.0525598 0
0.88913 -0.0364081 0
0.574177 -0.0171482 0
0.203127 -0.00388386 0
-0.236692 0.00634892 0
0.236692 5.64971e-05 0
0.651161 0.00634891 0
0.961943 0.0236157 0
1.15312 0.0418981 0
1.25043 0.0527222 0
1.2911 0.0543426 0
1.30409 0.0489702 0
1.30628 0.0394956 0
1.30565 0.0280242 0
1.30529 0.0157273 0
1.30624 0.0031687 0
1.30872 -0.00936531 0
1.31238 -0.0216401 0
1.3156 -0.0332721 0
1.31335 -0.0434353 0
1.29325 -0.0504623 0
1.23179 -0.0517122 0
1.09767 -0.0446944 0
0.870534 -0.0300913 0
0.56137 -0.0138705 0
0.199377 -0.00311338 0
-0.230616 0.00538103 0
0.230617 4.78695e-05 0
0.63449 0.00538102 0
0.944291 0.0201542 0
1.14267 0.03665 0
1.24887 0.0472617 0
1.29628 0.0497032 0
1.31324 0.0454959 0
1.31736 0.0371648 0
1.31752 0.0267262 0
1.31742 0.0153794 0
1.31834 0.00373235 0
1.32057 -0.00789761 0
1.32361 -0.0192502 0
1.32541 -0.0299071 0
1.32013 -0.0390047 0
1.29446 -0.0449101 0
1.22501 -0.0452685 0
1.08357 -0.0382552 0
0.854873 -0.0251634 0
0.550984 -0.0114233 0
0.196371 -0.00255571 0
-0.225467 0.00465561 0
0.225467 4.14062e-05 0
0.620226 0.0046556 0
0.928364 0.0174532 0
1.13243 0.0323492 0
1.24651 0.0426153 0
1.30035 0.0456563 0
1.32128 0.0424244 0
1.32744 0.0350956 0
1.32847 0.0255766 0
1.32866 0.0150758 0
1.32957 0.00423627 0
1.33153 -0.00659645 0
1.3339 -0.0171382 0
1.3342 -0.026941 0
1.32583 -0.0351179 0
1.29481 -0.0400954 0
1.21824 -0.039807 0
1.07093 -0.0329865 0
0.841606 -0.0212978 0
0.542423 -0.00957264 0
0.193904 -0.00214603 0
-0.221012 0.00409587 0
0.221012 3.64209e-05 0
0.60787 0.00409586 0
0.913982 0.015317 0
1.12251 0.0288052 0
1.24357 0.0386538 0
1.30347 0.0421243 0
1.32836 0.0397085 0
1.33663 0.0332577 0
1.33861 0.0245563 0
1.33913 0.0148067 0
1.34003 0.00467972 0
1.34171 -0.00545296 0
1.34337 -0.0152841 0
1.34209 -0.0243397 0
1.33064 -0.0317218 0
1.29453 -0.0359337 0
1.21166 -0.0351868 0
1.05965 -0.0286709 0
0.830286 -0.0182466 0
0.535252 -0.0081566 0
0.191832 -0.00184106 0
-0.217093 0.00365329 0
0.217093 3.24802e-05 0
0.597036 0.00365328 0
0.900959 0.0136038 0
1.113 0.0258646 0
1.24022 0.0352639 0
1.3058 0.039034 0
1.33458 0.037301 0
1.34503 0.0316197 0
1.34803 0.0236454 0
1.34891 0.0145626 0
1.34982 0.00506362 0
1.3512 -0.00445523 0
1.35211 -0.0136637 0
1.34922 -0.0220653 0
1.33471 -0.028761 0
1.29381 -0.0323421 0
1.20536 -0.0312799 0
1.04958 -0.0251279 0
0.820544 -0.0158217 0
0.529155 -0.00706099 0
0.190055 -0.00161111 0
-0.213597 0.0032959 0
0.213597 2.92989e-05 0
0.587429 0.00329589 0
0.889121 0.0122104 0
1.10393 0.0234056 0
1.23658 0.0323489 0
1.30747 0.0363195 0
1.34007 0.0351577 0
1.35273 0.0301514 0
1.3568 0.0228248 0
1.35808 0.014335 0
1.35901 0.00539012 0
1.36009 -0.00358986 0
1.36022 -0.0122518 0
1.35569 -0.0200795 0
1.33816 -0.0261814 0
1.29278 -0.0292431 0
1.19943 -0.0279734 0
1.0406 -0.0222092 0
0.812085 -0.0138803 0
0.523893 -0.00620401 0
0.188499 -0.00143547 0
-0.210443 0.00300181 0
0.210444 2.66815e-05 0
0.578822 0.0030018 0
0.878312 0.0110612 0
1.09529 0.0213314 0
1.23275 0.0298278 0
1.30859 0.0339233 0
1.3449 0.0332391 0
1.3598 0.0288258 0
1.36499 0.0220775 0
1.36671 0.0141166 0
1.36768 0.00566224 0
1.36846 -0.0028431 0
1.36778 -0.0110235 0
1.36158 -0.0183459 0
1.34112 -0.0239328 0
1.29155 -0.0265669 0
1.19386 -0.0251694 0
1.03255 -0.0197943 0
0.804674 -0.0123139 0
0.519289 -0.00552622 0
0.187113 -0.00129943 0
-0.207571 0.00275555 0
0.207571 2.44903e-05 0
0.57104 0.00275554 0
0.868396 0.0101003 0
1.08709 0.0195659 0
1.22879 0.027633 0
1.30925 0.031796 0
1.34916 0.0315108 0
1.36632 0.0276192 0
1.37268 0.0213886 0
1.37488 0.0139016 0
1.37589 0.00588364 0
1.37636 -0.00220147 0
1.37485 -0.00995539 0
1.36697 -0.0168309 0
1.34366 -0.0219697 0
1.29021 -0.0242514 0
1.18867 -0.0227846 0
1.02533 -0.017786 0
0.79812 -0.0110392 0
0.515208 -0.00498396 0
0.185859 -0.00119246 0
-0.204934 0.002546 0
0.204934 2.26261e-05 0
0.563949 0.00254598 0
0.859257 0.00928599 0
1.0793 0.0180487 0
1.22477 0.0257091 0
1.30953 0.0298959 0
1.35292 0.0299436 0
1.37234 0.0265115 0
1.37991 0.0207461 0
1.38262 0.0136857 0
1.3837 0.00605834 0
1.38384 -0.00165226 0
1.38149 -0.00902609 0
1.37193 -0.0155043 0
1.34587 -0.0202518 0
1.28879 -0.0222425 0
1.18384 -0.0207489 0
1.01882 -0.0161058 0
0.792274 -0.0099926 0
0.511547 -0.00454483 0
0.184707 -0.00110691 0
-0.202498 0.00236501 0
0.202498 2.10162e-05 0
0.557441 0.002365 0
0.850796 0.00858712 0
1.07191 0.0167327 0
1.22073 0.0240104 0
1.30948 0.0281879 0
1.35624 0.0285127 0
1.3779 0.0254863 0
1.38673 0.0201401 0
1.38998 0.0134658 0
1.39114 0.00619058 0
1.39096 -0.00118373 0
1.38774 -0.00821639 0
1.37652 -0.0143393 0
1.34779 -0.0187437 0
1.28735 -0.0204939 0
1.17936 -0.0190033 0
1.01292 -0.0146909 0
0.787014 -0.00912507 0
0.508228 -0.00418461 0
0.183639 -0.00103722 0
-0.200235 0.00220657 0
0.200235 1.96071e-05 0
0.551434 0.00220656 0
0.842932 0.00798006 0
1.06488 0.0155806 0
1.2167 0.0225 0
1.30917 0.026643 0
1.35916 0.027198 0
1.38306 0.02453 0
1.39317 0.0195629 0
1.39701 0.01324 0
1.39826 0.00628463 0
1.39775 -0.000785192 0
1.39365 -0.00750931 0
1.38077 -0.0133127 0
1.34948 -0.017415 0
1.28591 -0.0189655 0
1.1752 -0.0174988 0
1.00754 -0.0134907 0
0.782244 -0.00839871 0
0.505189 -0.00388512 0
0.182637 -0.000979327 0
-0.198124 0.0020662 0
0.198124 1.83588e-05 0
0.54586 0.00206619 0
0.835593 0.00744686 0
1.0582 0.0145628 0
1.2127 0.0211474 0
1.30864 0.0252373 0
1.36173 0.0259826 0
1.38786 0.0236319 0
1.39927 0.0190087 0
1.40372 0.0130075 0
1.40509 0.00634471 0
1.40425 -0.000447087 0
1.39926 -0.00689001 0
1.38473 -0.0124044 0
1.35098 -0.0162393 0
1.28449 -0.0176237 0
1.17133 -0.0161949 0
1.00263 -0.0124648 0
0.777886 -0.00778414 0
0.502384 -0.00363262 0
0.181692 -0.000930232 0
-0.196147 0.00194054 0
0.196147 1.72415e-05 0
0.540665 0.00194052 0
0.828723 0.00697381 0
1.05184 0.0136562 0
1.20875 0.0199282 0
1.30792 0.0239508 0
1.364 0.0248529 0
1.39232 0.0227833 0
1.40507 0.0184731 0
1.41016 0.0127678 0
1.41165 0.0063749 0
1.41047 -0.000160905 0
1.40458 -0.00634564 0
1.38843 -0.011597 0
1.35231 -0.0151943 0
1.28311 -0.0164399 0
1.16773 -0.0150579 0
0.998107 -0.0115808 0
0.773878 -0.00725853 0
0.499774 -0.00341669 0
0.180794 -0.000887743 0
-0.19429 0.00182703 0
0.19429 1.62324e-05 0
0.535805 0.00182702 0
0.822271 0.00655031 0
1.04579 0.0128423 0
1.20487 0.0188222 0
1.30704 0.0227674 0
1.366 0.0237977 0
1.39649 0.0219775 0
1.41058 0.017953 0
1.41633 0.0125215 0
1.41796 0.00637908 0
1.41644 8.08654e-05 0
1.40965 -0.0058651 0
1.39191 -0.0108757 0
1.35352 -0.0142607 0
1.28178 -0.0153899 0
1.16437 -0.0140602 0
0.993934 -0.0108127 0
0.770169 -0.00680407 0
0.497333 -0.00322941 0
0.179937 -0.000850245 0
-0.192542 0.00172375 0
0.192542 1.53142e-05 0
0.531245 0.00172373 0
0.816196 0.00616817 0
1.04001 0.0121066 0
1.20106 0.0178134 0
1.30605 0.0216737 0
1.36776 0.0228079 0
1.40037 0.0212094 0
1.41582 0.0174464 0
1.42226 0.0122691 0
1.42404 0.00636088 0
1.42218 0.000284816 0
1.41449 -0.00543886 0
1.39517 -0.010228 0
1.35461 -0.0134225 0
1.28049 -0.0144535 0
1.16123 -0.0131788 0
0.990063 -0.0101396 0
0.766717 -0.00640685 0
0.495036 -0.00306472 0
0.179116 -0.00081655 0
-0.190892 0.00162918 0
0.190892 1.44735e-05 0
0.526954 0.00162916 0
0.810463 0.00582099 0
1.0345 0.0114374 0
1.19733 0.0168883 0
1.30496 0.0206587 0
1.3693 0.0218763 0
1.404 0.0204749 0
1.42082 0.0169519 0
1.42796 0.0120118 0
1.4299 0.00632368 0
1.42771 0.000456711 0
1.41911 -0.00505878 0
1.39826 -0.00964326 0
1.3556 -0.0126659 0
1.27926 -0.0136137 0
1.1583 -0.012395 0
0.98646 -0.00954469 0
0.763491 -0.00605594 0
0.492865 -0.00291799 0
0.178328 -0.000785785 0
-0.189333 0.00154215 0
0.189334 1.37e-05 0
0.522906 0.00154213 0
0.80504 0.00550371 0
1.02924 0.0108253 0
1.19369 0.0160362 0
1.30378 0.0197132 0
1.37066 0.0209969 0
1.40741 0.019771 0
1.42559 0.0164687 0
1.43346 0.0117507 0
1.43557 0.00627059 0
1.43303 0.000601574 0
1.42354 -0.0047179 0
1.40118 -0.00911226 0
1.35652 -0.0119793 0
1.27809 -0.0128561 0
1.15555 -0.0116931 0
0.983091 -0.00901452 0
0.760461 -0.00574275 0
0.490807 -0.00278568 0
0.177569 -0.000757307 0
-0.187858 0.00146175 0
0.187858 1.29854e-05 0
0.519082 0.00146173 0
0.799902 0.00521232 0
1.02421 0.0102628 0
1.19014 0.0152483 0
1.30254 0.0188298 0
1.37184 0.0201648 0
1.41059 0.0190953 0
1.43015 0.0159965 0
1.43875 0.0114871 0
1.44104 0.00620444 0
1.43817 0.000723767 0
1.42778 -0.00441028 0
1.40395 -0.00862737 0
1.35736 -0.0113528 0
1.27696 -0.0121689 0
1.15296 -0.0110604 0
0.979932 -0.00853816 0
0.757606 -0.00546049 0
0.488848 -0.00266503 0
0.176838 -0.000730644 0
-0.186459 0.00138721 0
0.186459 1.23229e-05 0
0.51546 0.00138719 0
0.795026 0.00494359 0
1.01939 0.00974373 0
1.18668 0.014517 0
1.30125 0.0180022 0
1.37287 0.0193759 0
1.41359 0.018446 0
1.4345 0.0155352 0
1.44385 0.0112224 0
1.44633 0.00612779 0
1.44312 0.000827071 0
1.43186 -0.00413086 0
1.40658 -0.00818203 0
1.35815 -0.010778 0
1.27589 -0.0115419 0
1.15053 -0.0104863 0
0.976961 -0.00810677 0
0.754907 -0.0052038 0
0.486981 -0.00255394 0
0.176133 -0.000705446 0
-0.185132 0.00131793 0
0.185132 1.17073e-05 0
0.512027 0.00131791 0
0.790391 0.00469489 0
1.01479 0.00926308 0
1.18332 0.0138364 0
1.29993 0.0172251 0
1.37377 0.0186269 0
1.4164 0.0178216 0
1.43866 0.015085 0
1.44877 0.0109577 0
1.45145 0.00604293 0
1.44791 0.000914757 0
1.43577 -0.00387535 0
1.40908 -0.00777069 0
1.35889 -0.010248 0
1.27488 -0.0109666 0
1.14823 -0.00996206 0
0.974158 -0.00771318 0
0.752349 -0.00496838 0
0.485196 -0.00245075 0
0.175452 -0.000681456 0
-0.183871 0.00125341 0
0.183871 1.11339e-05 0
0.508766 0.00125339 0
0.785981 0.00446405 0
1.01037 0.00881666 0
1.18004 0.0132013 0
1.29857 0.0164941 0
1.37455 0.017915 0
1.41904 0.0172211 0
1.44265 0.014646 0
1.45351 0.0106945 0
1.4564 0.0059519 0
1.45254 0.000989642 0
1.43953 -0.00364007 0
1.41148 -0.00738865 0
1.35958 -0.00975668 0
1.27391 -0.0104359 0
1.14606 -0.00948032 0
0.971508 -0.00735155 0
0.749918 -0.00475084 0
0.483488 -0.00235417 0
0.174794 -0.000658483 0
-0.182671 0.00119321 0
0.182672 1.05989e-05 0
0.505666 0.00119319 0
0.781778 0.00424927 0
1.00614 0.00840098 0
1.17687 0.0126073 0
1.2972 0.0158053 0
1.37522 0.0172378 0
1.42153 0.0166437 0
1.44647 0.0142185 0
1.45809 0.0104337 0
1.46119 0.00585652 0
1.45701 0.00105415 0
1.44315 -0.00342192 0
1.41376 -0.0070319 0
1.36024 -0.00929897 0
1.27298 -0.00994384 0
1.144 -0.00903506 0
0.968997 -0.00701711 0
0.747604 -0.00454841 0
0.481851 -0.0022632 0
0.174158 -0.000636385 0
-0.18153 0.00113696 0
0.18153 1.00991e-05 0
0.502716 0.00113694 0
0.77777 0.00404902 0
1.00208 0.00801309 0
1.17378 0.0120508 0
1.29582 0.0151555 0
1.37579 0.0165932 0
1.42387 0.0160884 0
1.45012 0.0138029 0
1.46251 0.0101764 0
1.46583 0.00575836 0
1.46133 0.00111036 0
1.44663 -0.00321823 0
1.41595 -0.00669701 0
1.36086 -0.00887052 0
1.27211 -0.00948523 0
1.14205 -0.00862126 0
0.966614 -0.00670594 0
0.745398 -0.00435889 0
0.48028 -0.00217702 0
0.173544 -0.000615055 0
-0.180442 0.00108434 0
0.180442 9.6315e-06 0
0.499904 0.00108432 0
0.773943 0.00386198 0
0.998178 0.00765044 0
1.17078 0.0115285 0
1.29443 0.0145418 0
1.37628 0.0159793 0
1.42607 0.0155547 0
1.45362 0.0133994 0
1.46678 0.00992356 0
1.47032 0.00565879 0
1.46551 0.00116004 0
1.44999 -0.00302677 0
1.41805 -0.0063811 0
1.36146 -0.00846764 0
1.27127 -0.0090558 0
1.1402 -0.00823468 0
0.964348 -0.00641482 0
0.743291 -0.00418047 0
0.478772 -0.00209501 0
0.17295 -0.00059441 0
-0.179404 0.00103507 0
0.179405 9.19366e-06 0
0.497223 0.00103504 0
0.770285 0.00368703 0
0.994433 0.00731085 0
1.16787 0.0110377 0
1.29304 0.0139616 0
1.37669 0.0153946 0
1.42816 0.0150419 0
1.45698 0.0130082 0
1.47089 0.00967595 0
1.47466 0.00555898 0
1.46955 0.0012047 0
1.45323 -0.00284561 0
1.42006 -0.00608168 0
1.36202 -0.00808717 0
1.27048 -0.00865189 0
1.13845 -0.0078718 0
0.96219 -0.00614107 0
0.741278 -0.00401169 0
0.477323 -0.00201665 0
0.172376 -0.000574387 0
-0.178414 0.000988883 0
0.178415 8.78326e-06 0
0.494662 0.000988856 0
0.766786 0.00352315 0
0.990835 0.00699239 0
1.16505 0.0105759 0
1.29166 0.0134127 0
1.37703 0.0148374 0
1.43012 0.0145494 0
1.46019 0.0126295 0
1.47487 0.00943423 0
1.47887 0.00545993 0
1.47346 0.0012456 0
1.45636 -0.00267317 0
1.422 -0.00579665 0
1.36257 -0.00772641 0
1.26973 -0.0082704 0
1.13678 -0.00752964 0
0.960135 -0.00588247 0
0.739352 -0.00385134 0
0.475931 -0.00194151 0
0.171822 -0.000554936 0
-0.177468 0.000945548 0
0.177468 8.39822e-06 0
0.492215 0.000945521 0
0.763437 0.00336945 0
0.987375 0.00669336 0
1.16231 0.0101408 0
1.29028 0.0128929 0
1.37731 0.0143064 0
1.43197 0.0140767 0
1.46328 0.0122634 0
1.47871 0.00919893 0
1.48294 0.00536246 0
1.47724 0.00128379 0
1.45937 -0.00250807 0
1.42386 -0.00552422 0
1.36309 -0.00738305 0
1.26901 -0.00790867 0
1.13519 -0.00720567 0
0.958174 -0.00563717 0
0.737508 -0.0036984 0
0.474592 -0.00186925 0
0.171286 -0.000536014 0
-0.176563 0.000904854 0
0.176564 8.03665e-06 0
0.489875 0.000904826 0
0.760228 0.00322515 0
0.984047 0.00641222 0
1.15965 0.00973061 0
1.28892 0.0124005 0
1.37753 0.0138002 0
1.43372 0.0136231 0
1.46624 0.0119098 0
1.48241 0.00897048 0
1.48687 0.00526724 0
1.48091 0.00132016 0
1.46228 -0.00234919 0
1.42566 -0.00526286 0
1.3636 -0.00705512 0
1.26833 -0.00756444 0
1.13367 -0.00689778 0
0.956302 -0.0054036 0
0.735742 -0.00355205 0
0.473305 -0.00179958 0
0.170769 -0.000517587 0
-0.175698 0.000866603 0
0.175698 7.6968e-06 0
0.487635 0.000866575 0
0.75715 0.00308949 0
0.980843 0.00614761 0
1.15707 0.00934337 0
1.28757 0.0119336 0
1.3777 0.0133176 0
1.43538 0.013188 0
1.46908 0.0115688 0
1.48599 0.00874916 0
1.49069 0.00517478 0
1.48445 0.00135539 0
1.4651 -0.00219557 0
1.42739 -0.00501128 0
1.36409 -0.00674092 0
1.26769 -0.00723578 0
1.13223 -0.00660415 0
0.954514 -0.00518043 0
0.73405 -0.00341157 0
0.472067 -0.00173225 0
0.170269 -0.000499623 0
-0.174868 0.000830612 0
0.174869 7.37703e-06 0
0.485489 0.000830584 0
0.754198 0.00296182 0
0.977757 0.00589824 0
1.15457 0.00897746 0
1.28623 0.0114905 0
1.37783 0.0128572 0
1.43694 0.0127706 0
1.4718 0.0112401 0
1.48944 0.00853516 0
1.49437 0.00508549 0
1.48788 0.00139005 0
1.46782 -0.00204646 0
1.42906 -0.00476839 0
1.36457 -0.00643901 0
1.26708 -0.00692102 0
1.13085 -0.00632323 0
0.952806 -0.00496656 0
0.732428 -0.00327635 0
0.470877 -0.00166706 0
0.169787 -0.000482095 0
-0.174074 0.00079671 0
0.174074 7.07583e-06 0
0.483431 0.000796682 0
0.751363 0.00284152 0
0.974785 0.00566295 0
1.15215 0.00863133 0
1.28491 0.0110698 0
1.37791 0.012418 0
1.43842 0.0123704 0
1.47441 0.0109234 0
1.49277 0.00832853 0
1.49794 0.00499962 0
1.4912 0.00142456 0
1.47044 -0.00190122 0
1.43067 -0.00453326 0
1.36504 -0.00614815 0
1.2665 -0.00661874 0
1.12955 -0.00605368 0
0.951175 -0.004761 0
0.730875 -0.00314589 0
0.469733 -0.00160381 0
0.169321 -0.000464973 0
-0.173311 0.000764736 0
0.173312 6.79177e-06 0
0.481457 0.000764708 0
0.748639 0.002728 0
0.971919 0.00544066 0
1.14979 0.0083035 0
1.28361 0.0106699 0
1.37796 0.0119986 0