# vtk DataFile Version 3.0
vtk output
ASCII
DATASET UNSTRUCTURED_GRID
POINTS 1913 double
0.045977 0 0
0.045977 0.0952381 0
0.045977 0.142857 0
0.045977 0.190476 0
0.045977 0.238095 0
0.045977 0.285714 0
0.045977 0.333333 0
0.045977 0.380952 0
0.045977 0.428571 0
0.045977 0.47619 0
0.045977 0.52381 0
0.045977 0.571429 0
0.045977 0.619048 0
0.045977 0.666667 0
0.045977 0.714286 0
0.045977 0.761905 0
0.045977 0.809524 0
0.045977 0.857143 0
0.045977 0.904762 0
0.045977 0.952381 0
0.045977 1 0
0.091954 0 0
0.091954 0.047619 0
0.091954 0.0952381 0
0.091954 0.142857 0
0.091954 0.190476 0
0.091954 0.238095 0
0.091954 0.285714 0
0.091954 0.333333 0
0.091954 0.380952 0
0.091954 0.428571 0
0.091954 0.47619 0
0.091954 0.52381 0
0.091954 0.571429 0
0.091954 0.619048 0
0.091954 0.666667 0
0.091954 0.714286 0
0.091954 0.761905 0
0.091954 0.809524 0
0.091954 0.857143 0
0.091954 0.904762 0
0.091954 0.952381 0
0.091954 1 0
0.137931 0 0
0.137931 0.047619 0
0.137931 0.0952381 0
0.137931 0.142857 0
0.137931 0.190476 0
0.137931 0.238095 0
0.137931 0.285714 0
0.137931 0.333333 0
0.137931 0.380952 0
0.137931 0.428571 0
0.137931 0.47619 0
0.137931 0.52381 0
0.137931 0.571429 0
0.137931 0.619048 0
0.137931 0.666667 0
0.137931 0.714286 0
0.137931 0.761905 0
0.137931 0.809524 0
0.137931 0.857143 0
0.137931 0.904762 0
0.137931 0.952381 0
0.137931 1 0
0.183908 0 0
0.183908 0.047619 0
0.183908 0.0952381 0
0.183908 0.142857 0
0.183908 0.190476 0
0.183908 0.238095 0
0.183908 0.285714 0
0.183908 0.333333 0
0.183908 0.380952 0
0.183908 0.428571 0
0.183908 0.47619 0
0.183908 0.52381 0
0.183908 0.571429 0
0.183908 0.619048 0
0.183908 0.666667 0
0.183908 0.714286 0
0.183908 0.761905 0
0.183908 0.809524 0
0.183908 0.857143 0
0.183908 0.904762 0
0.183908 0.952381 0
0.183908 1 0
0.229885 0 0
0.229885 0.047619 0
0.229885 0.0952381 0
0.229885 0.142857 0
0.229885 0.190476 0
0.229885 0.238095 0
0.229885 0.285714 0
0.229885 0.333333 0
0.229885 0.380952 0
0.229885 0.428571 0
0.229885 0.47619 0
0.229885 0.52381 0
0.229885 0.571429 0
0.229885 0.619048 0
0.229885 0.666667 0
0.229885 0.714286 0
0.229885 0.761905 0
0.229885 0.809524 0
0.229885 0.857143 0
0.229885 0.904762 0
0.229885 0.952381 0
0.229885 1 0
0.275862 0 0
0.275862 0.047619 0
0.275862 0.0952381 0
0.275862 0.142857 0
0.275862 0.190476 0
0.275862 0.238095 0
0.275862 0.285714 0
0.275862 0.333333 0
0.275862 0.380952 0
0.275862 0.428571 0
0.275862 0.47619 0
0.275862 0.52381 0
0.275862 0.571429 0
0.275862 0.619048 0
0.275862 0.666667 0
0.275862 0.714286 0
0.275862 0.761905 0
0.275862 0.809524 0
0.275862 0.857143 0
0.275862 0.904762 0
0.275862 0.952381 0
0.275862 1 0
0.321839 0 0
0.321839 0.047619 0
0.321839 0.0952381 0
0.321839 0.142857 0
0.321839 0.190476 0
0.321839 0.238095 0
0.321839 0.285714 0
0.321839 0.333333 0
0.321839 0.380952 0
0.321839 0.428571 0
0.321839 0.47619 0
0.321839 0.52381 0
0.321839 0.571429 0
0.321839 0.619048 0
0.321839 0.666667 0
0.321839 0.714286 0
0.321839 0.761905 0
0.321839 0.809524 0
0.321839 0.857143 0
0.321839 0.904762 0
0.321839 0.952381 0
0.321839 1 0
0.367816 0 0
0.367816 0.047619 0
0.367816 0.0952381 0
0.367816 0.142857 0
0.367816 0.190476 0
0.367816 0.238095 0
0.367816 0.285714 0
0.367816 0.333333 0
0.367816 0.380952 0
0.367816 0.428571 0
0.367816 0.47619 0
0.367816 0.52381 0
0.367816 0.571429 0
0.367816 0.619048 0
0.367816 0.666667 0
0.367816 0.714286 0
0.367816 0.761905 0
0.367816 0.809524 0
0.367816 0.857143 0
0.367816 0.904762 0
0.367816 0.952381 0
0.367816 1 0
0.413793 0 0
0.413793 0.047619 0
0.413793 0.0952381 0
0.413793 0.142857 0
0.413793 0.190476 0
0.413793 0.238095 0
0.413793 0.285714 0
0.413793 0.333333 0
0.413793 0.380952 0
0.413793 0.428571 0
0.413793 0.47619 0
0.413793 0.52381 0
0.413793 0.571429 0
0.413793 0.619048 0
0.413793 0.666667 0
0.413793 0.714286 0
0.413793 0.761905 0
0.413793 0.809524 0
0.413793 0.857143 0
0.413793 0.904762 0
0.413793 0.952381 0
0.413793 1 0
0.45977 0 0
0.45977 0.047619 0
0.45977 0.0952381 0
0.45977 0.142857 0
0.45977 0.190476 0
0.45977 0.238095 0
0.45977 0.285714 0
0.45977 0.333333 0
0.45977 0.380952 0
0.45977 0.428571 0
0.45977 0.47619 0
0.45977 0.52381 0
0.45977 0.571429 0
0.45977 0.619048 0
0.45977 0.666667 0
0.45977 0.714286 0
0.45977 0.761905 0
0.45977 0.809524 0
0.45977 0.857143 0
0.45977 0.904762 0
0.45977 0.952381 0
0.45977 1 0
0.505747 0 0
0.505747 0.047619 0
0.505747 0.0952381 0
0.505747 0.142857 0
0.505747 0.190476 0
0.505747 0.238095 0
0.505747 0.285714 0
0.505747 0.333333 0
0.505747 0.380952 0
0.505747 0.428571 0
0.505747 0.47619 0
0.505747 0.52381 0
0.505747 0.571429 0
0.505747 0.619048 0
0.505747 0.666667 0
0.505747 0.714286 0
0.505747 0.761905 0
0.505747 0.809524 0
0.505747 0.857143 0
0.505747 0.904762 0
0.505747 0.952381 0
0.505747 1 0
0.551724 0 0
0.551724 0.047619 0
0.551724 0.0952381 0
0.551724 0.142857 0
0.551724 0.190476 0
0.551724 0.238095 0
0.551724 0.285714 0
0.551724 0.333333 0
0.551724 0.380952 0
0.551724 0.428571 0
0.551724 0.47619 0
0.551724 0.52381 0
0.551724 0.571429 0
0.551724 0.619048 0
0.551724 0.666667 0
0.551724 0.714286 0
0.551724 0.761905 0
0.551724 0.809524 0
0.551724 0.857143 0
0.551724 0.904762 0
0.551724 0.952381 0
0.551724 1 0
0.597701 0 0
0.597701 0.047619 0
0.597701 0.0952381 0
0.597701 0.142857 0
0.597701 0.190476 0
0.597701 0.238095 0
0.597701 0.285714 0
0.597701 0.333333 0
0.597701 0.380952 0
0.597701 0.428571 0
0.597701 0.47619 0
0.597701 0.52381 0
0.597701 0.571429 0
0.597701 0.619048 0
0.597701 0.666667 0
0.597701 0.714286 0
0.597701 0.761905 0
0.597701 0.809524 0
0.597701 0.857143 0
0.597701 0.904762 0
0.597701 0.952381 0
0.597701 1 0
0.643678 0 0
0.643678 0.047619 0
0.643678 0.0952381 0
0.643678 0.142857 0
0.643678 0.190476 0
0.643678 0.238095 0
0.643678 0.285714 0
0.643678 0.333333 0
0.643678 0.380952 0
0.643678 0.428571 0
0.643678 0.47619 0
0.643678 0.52381 0
0.643678 0.571429 0
0.643678 0.619048 0
0.643678 0.666667 0
0.643678 0.714286 0
0.643678 0.761905 0
0.643678 0.809524 0
0.643678 0.857143 0
0.643678 0.904762 0
0.643678 0.952381 0
0.643678 1 0
0.689655 0 0
0.689655 0.047619 0
0.689655 0.0952381 0
0.689655 0.142857 0
0.689655 0.190476 0
0.689655 0.238095 0
0.689655 0.285714 0
0.689655 0.333333 0
0.689655 0.380952 0
0.689655 0.428571 0
0.689655 0.47619 0
0.689655 0.52381 0
0.689655 0.571429 0
0.689655 0.619048 0
0.689655 0.666667 0
0.689655 0.714286 0
0.689655 0.761905 0
0.689655 0.809524 0
0.689655 0.857143 0
0.689655 0.904762 0
0.689655 0.952381 0
0.689655 1 0
0.735632 0 0
0.735632 0.047619 0
0.735632 0.0952381 0
0.735632 0.142857 0
0.735632 0.190476 0
0.735632 0.238095 0
0.735632 0.285714 0
0.735632 0.333333 0
0.735632 0.380952 0
0.735632 0.428571 0
0.735632 0.47619 0
0.735632 0.52381 0
0.735632 0.571429 0
0.735632 0.619048 0
0.735632 0.666667 0
0.735632 0.714286 0
0.735632 0.761905 0
0.735632 0.809524 0
0.735632 0.857143 0
0.735632 0.904762 0
0.735632 0.952381 0
0.735632 1 0
0.781609 0 0
0.781609 0.047619 0
0.781609 0.0952381 0
0.781609 0.142857 0
0.781609 0.190476 0
0.781609 0.238095 0
0.781609 0.285714 0
0.781609 0.333333 0
0.781609 0.380952 0
0.781609 0.428571 0
0.781609 0.47619 0
0.781609 0.52381 0
0.781609 0.571429 0
0.781609 0.619048 0
0.781609 0.666667 0
0.781609 0.714286 0
0.781609 0.761905 0
0.781609 0.809524 0
0.781609 0.857143 0
0.781609 0.904762 0
0.781609 0.952381 0
0.781609 1 0
0.827586 0 0
0.827586 0.047619 0
0.827586 0.0952381 0
0.827586 0.142857 0
0.827586 0.190476 0
0.827586 0.238095 0
0.827586 0.285714 0
0.827586 0.333333 0
0.827586 0.380952 0
0.827586 0.428571 0
0.827586 0.47619 0
0.827586 0.52381 0
0.827586 0.571429 0
0.827586 0.619048 0
0.827586 0.666667 0
0.827586 0.714286 0
0.827586 0.761905 0
0.827586 0.809524 0
0.827586 0.857143 0
0.827586 0.904762 0
0.827586 0.952381 0
0.827586 1 0
0.873563 0 0
0.873563 0.047619 0
0.873563 0.0952381 0
0.873563 0.142857 0
0.873563 0.190476 0
0.873563 0.238095 0
0.873563 0.285714 0
0.873563 0.333333 0
0.873563 0.380952 0
0.873563 0.428571 0
0.873563 0.47619 0
0.873563 0.52381 0
0.873563 0.571429 0
0.873563 0.619048 0
0.873563 0.666667 0
0.873563 0.714286 0
0.873563 0.761905 0
0.873563 0.809524 0
0.873563 0.857143 0
0.873563 0.904762 0
0.873563 0.952381 0
0.873563 1 0
0.91954 0 0
0.91954 0.047619 0
0.91954 0.0952381 0
0.91954 0.142857 0
0.91954 0.190476 0
0.91954 0.238095 0
0.91954 0.285714 0
0.91954 0.333333 0
0.91954 0.380952 0
0.91954 0.428571 0
0.91954 0.47619 0
0.91954 0.52381 0
0.91954 0.571429 0
0.91954 0.619048 0
0.91954 0.666667 0
0.91954 0.714286 0
0.91954 0.761905 0
0.91954 0.809524 0
0.91954 0.857143 0
0.91954 0.904762 0
0.91954 0.952381 0
0.91954 1 0
0.965517 0 0
0.965517 0.047619 0
0.965517 0.0952381 0
0.965517 0.142857 0
0.965517 0.190476 0
0.965517 0.238095 0
0.965517 0.285714 0
0.965517 0.333333 0
0.965517 0.380952 0
0.965517 0.428571 0
0.965517 0.47619 0
0.965517 0.52381 0
0.965517 0.571429 0
0.965517 0.619048 0
0.965517 0.666667 0
0.965517 0.714286 0
0.965517 0.761905 0
0.965517 0.809524 0
0.965517 0.857143 0
0.965517 0.904762 0
0.965517 0.952381 0
0.965517 1 0
1.01149 0 0
1.01149 0.047619 0
1.01149 0.0952381 0
1.01149 0.142857 0
1.01149 0.190476 0
1.01149 0.238095 0
1.01149 0.285714 0
1.01149 0.333333 0
1.01149 0.380952 0
1.01149 0.428571 0
1.01149 0.47619 0
1.01149 0.52381 0
1.01149 0.571429 0
1.01149 0.619048 0
1.01149 0.666667 0
1.01149 0.714286 0
1.01149 0.761905 0
1.01149 0.809524 0
1.01149 0.857143 0
1.01149 0.904762 0
1.01149 0.952381 0
1.01149 1 0
1.05747 0 0
1.05747 0.047619 0
1.05747 0.0952381 0
1.05747 0.142857 0
1.05747 0.190476 0
1.05747 0.238095 0
1.05747 0.285714 0
1.05747 0.333333 0
1.05747 0.380952 0
1.05747 0.428571 0
1.05747 0.47619 0
1.05747 0.52381 0
1.05747 0.571429 0
1.05747 0.619048 0
1.05747 0.666667 0
1.05747 0.714286 0
1.05747 0.761905 0
1.05747 0.809524 0
1.05747 0.857143 0
1.05747 0.904762 0
1.05747 0.952381 0
1.05747 1 0
1.10345 0 0
1.10345 0.047619 0
1.10345 0.0952381 0
1.10345 0.142857 0
1.10345 0.190476 0
1.10345 0.238095 0
1.10345 0.285714 0
1.10345 0.333333 0
1.10345 0.380952 0
1.10345 0.428571 0
1.10345 0.47619 0
1.10345 0.52381 0
1.10345 0.571429 0
[...]
POINT_DATA 1913
VECTORS velocity[m/s] double
-0 0.209776 0
0 0.209777 0
0 0.210166 0
0 0.18218 0
0 0.152284 0
0 0.123991 0
0 0.0974672 0
0 0.0723708 0
0 0.048275 0
0 0.0247536 0
0 0.00139184 0
0 -0.0222289 0
0 -0.0465573 0
0 -0.0721085 0
0 -0.0995116 0
0 -0.129576 0
0 -0.163383 0
0 -0.202405 0
0 -0.24822 0
0 -0.297663 0
0 -0.306752 0
-0.870324 0.185381 0
0.870327 0.00163506 0
1.07249 0.185381 0
1.09989 0.209475 0
1.10173 0.185565 0
1.10019 0.154627 0
1.09848 0.125317 0
1.0971 0.0982585 0
1.09613 0.072878 0
1.09557 0.0486037 0
1.0954 0.0249501 0
1.09564 0.00147722 0
1.09631 -0.0222463 0
1.09748 -0.0466789 0
1.09925 -0.0723478 0
1.1018 -0.0999066 0
1.1054 -0.130228 0
1.11041 -0.164534 0
1.11695 -0.204282 0
1.12044 -0.248683 0
1.08146 -0.281378 0
0.776497 -0.233036 0
-0.692925 0.144702 0
0.692927 0.00129629 0
1.04924 0.144703 0
1.12298 0.190392 0
1.13161 0.179674 0
1.12849 0.152723 0
1.12461 0.124281 0
1.12161 0.0975079 0
1.11957 0.0723762 0
1.11841 0.0483661 0
1.11807 0.0249866 0
1.11856 0.00180396 0
1.11991 -0.0215963 0
1.12227 -0.0456473 0
1.12587 -0.0708416 0
1.13109 -0.0977837 0
1.13853 -0.127248 0
1.1488 -0.160087 0
1.15983 -0.196088 0
1.15201 -0.228609 0
1.03479 -0.230182 0
0.551504 -0.144966 0
-0.554475 0.105478 0
0.554476 0.000944245 0
1.00513 0.105479 0
1.13334 0.16206 0
1.15764 0.165508 0
1.15596 0.145941 0
1.15047 0.120521 0
1.14588 0.0951204 0
1.14276 0.0708641 0
1.14099 0.0475745 0
1.14046 0.024863 0
1.14116 0.00234913 0
1.14314 -0.0203321 0
1.1466 -0.0435557 0
1.15189 -0.0677356 0
1.15954 -0.0933489 0
1.17024 -0.120886 0
1.18356 -0.150372 0
1.19124 -0.179211 0
1.15354 -0.196027 0
0.952519 -0.172575 0
0.411545 -0.0827809 0
-0.453556 0.0737238 0
0.453556 0.000659359 0
0.950506 0.0737249 0
1.13001 0.13236 0
1.17654 0.146831 0
1.18051 0.135401 0
1.175 0.114336 0
1.16931 0.0912286 0
1.16525 0.0684254 0
1.16293 0.0462724 0
1.16221 0.0245811 0
1.16306 0.00306969 0
1.16557 -0.0185503 0
1.16996 -0.0405716 0
1.17663 -0.0632996 0
1.18614 -0.0870309 0
1.19872 -0.111865 0
1.21142 -0.136864 0
1.20748 -0.15745 0
1.1309 -0.160468 0
0.865828 -0.124019 0
0.331626 -0.0470691 0
-0.383021 0.0503263 0
0.383021 0.00044974 0
0.8939 0.0503276 0
1.11605 0.105483 0
1.18758 0.126967 0
1.20086 0.122763 0
1.19731 0.106444 0
1.19133 0.086172 0
1.18665 0.0652406 0
1.18388 0.0445475 0
1.18299 0.0241564 0
1.18394 0.00391315 0
1.18684 -0.0163782 0
1.19191 -0.0369172 0
1.19955 -0.0578893 0
1.21012 -0.0793933 0
1.22286 -0.101125 0
1.2313 -0.121319 0
1.2104 -0.134272 0
1.09572 -0.127575 0
0.791539 -0.0877528 0
0.286187 -0.0278673 0
-0.334875 0.0341672 0
0.334873 0.000305119 0
0.840654 0.0341687 0
1.09531 0.0830319 0
1.19165 0.108034 0
1.21662 0.109473 0
1.21689 0.0976264 0
1.21155 0.0803615 0
1.20664 0.0615319 0
1.20357 0.0425082 0
1.20254 0.0236111 0
1.20354 0.00482373 0
1.20668 -0.0139545 0
1.21217 -0.0328309 0
1.22032 -0.0518754 0
1.23111 -0.0710002 0
1.24237 -0.08955 0
1.24381 -0.105191 0
1.20394 -0.111934 0
1.05728 -0.0995341 0
0.733726 -0.0619643 0
0.259288 -0.0173905 0
-0.302191 0.0234886 0
0.302188 0.000209614 0
0.793483 0.0234902 0
1.07118 0.0651409 0
1.19027 0.0910736 0
1.22806 0.0965089 0
1.23357 0.0885236 0
1.22973 0.0741702 0
1.22501 0.0575099 0
1.22182 0.0402589 0
1.22068 0.0229665 0
1.22168 0.00574645 0
1.22491 -0.0114126 0
1.23056 -0.0285357 0
1.23879 -0.0455909 0
1.24903 -0.0623307 0
1.25748 -0.0778335 0
1.25033 -0.0894691 0
1.19198 -0.0915829 0
1.02101 -0.0765809 0
0.690697 -0.0438204 0
0.242505 -0.0113108 0
-0.279725 0.016595 0
0.27972 0.000147997 0
0.753276 0.0165969 0
1.04615 0.0512553 0
1.18502 0.0764115 0
1.23578 0.0844112 0
1.24744 0.0795688 0
1.24583 0.0678793 0
1.24167 0.0533411 0
1.23853 0.0378825 0
1.23732 0.0222359 0
1.23826 0.00662963 0
1.24145 -0.00887077 0
1.24704 -0.024221 0
1.25496 -0.039305 0
1.26401 -0.0537489 0
1.26872 -0.0664542 0
1.25238 -0.0747282 0
1.1775 -0.0736298 0
0.989386 -0.0581199 0
0.659316 -0.0309068 0
0.231592 -0.00748674 0
-0.263856 0.0121506 0
0.263849 0.000108293 0
0.71982 0.0121528 0
1.02187 0.0405954 0
1.17731 0.0639635 0
1.24046 0.0733949 0
1.25873 0.0710038 0
1.25987 0.0616674 0
1.25661 0.0491369 0
1.25364 0.0354334 0
1.25239 0.0214227 0
1.25323 0.00742624 0
1.25628 -0.00642651 0
1.26161 -0.0200359 0
1.26891 -0.0332191 0
1.27628 -0.0455085 0
1.27672 -0.0557117 0
1.25133 -0.061251 0
1.16253 -0.0580791 0
0.963119 -0.0433383 0
0.636712 -0.0215028 0
0.224372 -0.00488861 0
-0.25224 0.00921672 0
0.252231 8.21006e-05 0
0.692365 0.00921959 0
0.999311 0.0323832 0
1.16821 0.05344 0
1.24278 0.06346 0
1.26775 0.0629182 0
1.27198 0.0556199 0
1.26984 0.0449537 0
1.26718 0.0329365 0
1.26592 0.0205186 0
1.26661 0.00809432 0
1.26943 -0.00415633 0
1.27434 -0.0160901 0
1.28079 -0.0274727 0
1.28614 -0.0377728 0
1.28208 -0.0457744 0
1.24827 -0.0491371 0
1.14831 -0.0447517 0
0.942045 -0.0314815 0
0.620679 -0.01448 0
0.21966 -0.00301403 0
-0.243431 0.00717374 0
0.243419 6.38779e-05 0
0.670007 0.00717803 0
0.978987 0.0259297 0
1.15854 0.044462 0
1.24331 0.0544722 0
1.27481 0.055289 0
1.28228 0.0497444 0
1.28146 0.040799 0
1.27917 0.0303888 0
1.27792 0.0195056 0
1.27845 0.0085969 0
1.28096 -0.00211698 0
1.28534 -0.0124585 0
1.29074 -0.0221549 0
1.29387 -0.0306374 0
1.28533 -0.0367234 0
1.24405 -0.0383868 0
1.1355 -0.033416 0
0.925638 -0.0219485 0
0.609617 -0.00913354 0
0.216759 -0.00161128 0
-0.236577 0.00562782 0
0.236562 5.01038e-05 0
0.65191 0.00563444 0
0.961101 0.0206682 0
1.14888 0.0366368 0
1.24253 0.0462281 0
1.28017 0.0480222 0
1.29093 0.043994 0
1.29151 0.0366432 0
1.28969 0.0277663 0
1.28846 0.0183582 0
1.2888 0.00890263 0
1.29095 -0.000347908 0
1.29471 -0.00918799 0
1.29894 -0.0173165 0
1.29976 -0.0241511 0
1.28694 -0.0285879 0
1.23926 -0.0289571 0
1.12444 -0.023855 0
0.913274 -0.0143012 0
0.602363 -0.00503695 0
0.215212 -0.000551405 0
-0.231203 0.00434347 0
0.231181 3.86723e-05 0
0.637402 0.00435299 0
0.945691 0.0161795 0
1.13963 0.0296277 0
1.24081 0.0385253 0
1.28407 0.0410053 0
1.29803 0.0383024 0
1.30009 0.0324429 0
1.29878 0.0250376 0
1.2976 0.0170513 0
1.29774 0.00898793 0
1.29949 0.00112645 0
1.30257 -0.00630405 0
1.30554 -0.0129831 0
1.30405 -0.0183358 0
1.28731 -0.0213731 0
1.23434 -0.0207966 0
1.11523 -0.0158942 0
0.904338 -0.00823639 0
0.598041 -0.00193339 0
0.214689 0.00023423 0
-0.227059 0.00320119 0
0.227028 2.85128e-05 0
0.625991 0.00321348 0
0.932715 0.0122087 0
1.13105 0.0232163 0
1.23842 0.0312317 0
1.28668 0.0341675 0
1.3037 0.0326287 0
1.30725 0.028171 0
1.3065 0.0221836 0
1.30539 0.0155705 0
1.30534 0.00884104 0
1.30668 0.00229505 0
1.30903 -0.00381795 0
1.31072 -0.00916654 0
1.30699 -0.013203 0
1.28676 -0.0150798 0
1.22961 -0.013863 0
1.10784 -0.00940183 0
0.898262 -0.00354298 0
0.595958 0.000340613 0
0.214925 0.000786909 0
-0.224008 0.0021649 0
0.223965 1.92987e-05 0
0.617315 0.00217905 0
0.922095 0.0086586 0
1.12332 0.0173335 0
1.23559 0.0243336 0
1.28818 0.0275263 0
1.30801 0.0269968 0
1.31304 0.023846 0
1.31289 0.0192165 0
1.3119 0.0139238 0
1.31167 0.0084665 0
1.31259 0.00315937 0
1.3142 -0.0017319 0
1.31463 -0.00587381 0
1.30881 -0.00876356 0
1.2856 -0.00971235 0
1.22532 -0.00812497 0
1.10219 -0.00427363 0
0.894522 -5.99658e-05 0
0.595537 0.00190581 0
0.215694 0.00113847 0
-0.22195 0.00124951 0
0.221893 1.11585e-05 0
0.611067 0.00126405 0
0.913728 0.0055482 0
1.11657 0.012043 0
1.23252 0.0179385 0
1.2887 0.0212015 0
1.31106 0.0215111 0
1.31752 0.0195471 0
1.31801 0.0161912 0
1.31717 0.0121476 0
1.3168 0.0078879 0
1.31732 0.00373288 0
1.31821 -4.17387e-05 0
1.31743 -0.00311028 0
1.30974 -0.00502977 0
1.28407 -0.00527641 0
1.22161 -0.00355052 0
1.09814 -0.000409994 0
0.892633 0.00235794 0
0.596287 0.00287022 0
0.216803 0.00132008 0
-0.220768 0.000488944 0
0.220697 4.39203e-06 0
0.60694 0.000502318 0
0.907466 0.00295041 0
1.11088 0.00748075 0
1.22938 0.0122317 0
1.28841 0.0153872 0
1.31297 0.0163418 0
1.32077 0.0154057 0
1.32193 0.0132018 0
1.32129 0.010306 0
1.32082 0.00714691 0
1.32097 0.00404037 0
1.32118 0.00126319 0
1.31929 -0.000877336 0
1.30999 -0.00200864 0
1.28242 -0.00176653 0
1.21859 -9.03224e-05 0
1.09547 0.00230477 0
0.892149 0.00386169 0
0.597794 0.00334275 0
0.218087 0.00136514 0
-0.220314 -8.93495e-05 0
0.22023 -7.56774e-07 0
0.604586 -7.83639e-05 0
0.903101 0.000929895 0
1.10631 0.00377857 0
1.22634 0.00740517 0
1.28749 0.0102956 0
1.31388 0.0116832 0
1.3229 0.0115788 0
1.32473 0.0103645 0
1.32435 0.00848048 0
1.32383 0.0062983 0
1.32366 0.00411649 0
1.32325 0.00220207 0
1.32039 0.000833823 0
1.30976 0.000308812 0
1.28081 0.000848116 0
1.21628 0.00233742 0
1.09398 0.0040143 0
0.892659 0.00461517 0
0.599713 0.00343517 0
0.219415 0.00130845 0
-0.220414 -0.000478543 0
0.22032 -4.22614e-06 0
0.603622 -0.000470594 0
0.90036 -0.000497594 0
1.10281 0.00100234 0
1.22356 0.00358963 0
1.28616 0.00609489 0
1.31399 0.00770482 0
1.32408 0.00821267 0
1.32656 0.0077938 0
1.32647 0.00675521 0
1.32594 0.00540203 0
1.32552 0.00400318 0
1.32458 0.00280475 0
1.32091 0.0020487 0
1.30925 0.00195745 0
1.27938 0.00263391 0
1.21467 0.00385309 0
1.09341 0.00488993 0
0.893808 0.00479079 0
0.601776 0.00325719 0
0.220688 0.00118378 0
-0.220886 -0.000694781 0
0.220784 -6.1581e-06 0
0.603658 -0.000689912 0
0.898922 -0.00137705 0
1.10033 -0.000875688 0
1.22115 0.000813675 0
1.28462 0.00286484 0
1.31351 0.00451047 0
1.3245 0.00541078 0
1.32757 0.00557911 0
1.32778 0.00520224 0
1.3273 0.00451474 0
1.32668 0.0037463 0
1.32532 0.00311245 0
1.321 0.00281302 0
1.30861 0.00300214 0
1.27821 0.00369404 0
1.21368 0.00461062 0
1.09351 0.00511994 0
0.895298 0.00455816 0
0.603787 0.00290906 0
0.22184 0.00102122 0
-0.221565 -0.00077114 0
0.221459 -6.84541e-06 0
0.604331 -0.000768935 0
0.898447 -0.00180225 0
1.0987 -0.00196897 0
1.21918 -0.00100009 0
1.28304 0.000582792 0
1.31265 0.0021203 0
1.32434 0.00321583 0
1.32794 0.00377026 0
1.32846 0.00387058 0
1.32805 0.00368286 0
1.3273 0.00339183 0
1.32562 0.00317603 0
1.32083 0.00319154 0
1.30795 0.00353451 0
1.27733 0.00416022 0
1.2132 0.00478324 0
1.09406 0.00489286 0
0.896899 0.00407114 0
0.605618 0.00247506 0
0.222835 0.000845175 0
-0.222317 -0.000748181 0
0.222209 -6.64787e-06 0
0.605338 -0.000747974 0
0.898617 -0.00189164 0
1.09778 -0.00244547 0
1.21766 -0.00200933 0
1.28156 -0.0008618 0
1.3116 0.000475366 0
1.32382 0.00160857 0
1.32785 0.00237349 0
1.32865 0.00278183 0
1.32834 0.00293855 0
1.32752 0.00298231 0
1.32561 0.0030521 0
1.32051 0.00326225 0
1.30735 0.00366331 0
1.27674 0.00417803 0
1.2131 0.00454517 0
1.09487 0.0043806 0
0.898449 0.00345754 0
0.607201 0.0020198 0
0.22366 0.000673547 0
-0.223047 -0.000665236 0
0.222938 -5.91493e-06 0
0.606451 -0.000666315 0
0.899161 -0.00176391 0
1.09737 -0.0024896 0
1.21656 -0.00241172 0
1.28028 -0.00163467 0
1.31051 -0.000540255 0
1.32309 0.000520451 0
1.32747 0.00135745 0
1.3285 0.00193205 0
1.32831 0.00229904 0
1.32746 0.00255407 0
1.32542 0.00279793 0
1.32013 0.00310796 0
1.30686 0.00350179 0
1.2764 0.0038904 0
1.21327 0.00405449 0
1.09577 0.00372585 0
0.899846 0.00281387 0
0.608509 0.00158769 0
0.224318 0.000517883 0
-0.223696 -0.000554693 0
0.223589 -4.93474e-06 0
0.607519 -0.000556436 0
0.899871 -0.00152026 0
1.0973 -0.0022705 0
1.21582 -0.00240572 0
1.27923 -0.00191966 0
1.3095 -0.00107039 0
1.32229 -0.000146417 0
1.32692 0.000665394 0
1.32816 0.00129794 0
1.32807 0.0017684 0
1.32723 0.00213557 0
1.32513 0.00246633 0
1.31975 0.00280765 0
1.30649 0.00315564 0
1.27624 0.00342381 0
1.21359 0.00344118 0
1.09666 0.00303587 0
0.901038 0.0022052 0
0.60955 0.00120505 0
0.224827 0.000384291 0
-0.22424 -0.000439648 0
0.224134 -3.91305e-06 0
0.608459 -0.000441591 0
0.900604 -0.00123598 0
1.09744 -0.00192307 0
1.21536 -0.00216249 0
1.27842 -0.00188816 0
1.30861 -0.00125979 0
1.32151 -0.000498763 0
1.32632 0.000228837 0
1.32771 0.000844837 0
1.32772 0.00134093 0
1.32692 0.00174689 0
1.32481 0.00210186 0
1.31943 0.00242963 0
1.30624 0.00271405 0
1.27624 0.00287958 0
1.21399 0.00280181 0
1.09747 0.00238251 0
0.902011 0.00166908 0
0.61035 0.000883773 0
0.225205 0.00027472 0
-0.224673 -0.000334182 0
0.224569 -2.97554e-06 0
0.609234 -0.00033603 0
0.901275 -0.000959755 0
1.09768 -0.00154185 0
1.2151 -0.00181202 0
1.27782 -0.00168026 0
1.30789 -0.00123493 0
1.32082 -0.000636003 0
1.32573 -2.05319e-05 0
1.32724 0.000534195 0
1.32734 0.00100487 0
1.32659 0.00140029 0
1.3245 0.00173869 0
1.31916 0.00202752 0
1.30609 0.00224525 0
1.27632 0.0023309 0
1.2144 0.00220016 0
1.09816 0.00180694 0
0.902777 0.00122162 0
0.610946 0.000625503 0
0.225478 0.000188295 0
-0.225004 -0.000245119 0
0.224902 -2.18329e-06 0
0.609844 -0.000246716 0
0.901845 -0.000717916 0
1.09795 -0.00118425 0
1.21498 -0.00144146 0
1.2774 -0.00139785 0
1.30732 -0.00109442 0
1.32023 -0.00064048 0
1.3252 -0.000142776 0
1.32679 0.000329368 0
1.32696 0.000745734 0
1.32627 0.00110145 0
1.32423 0.00140028 0
1.31896 0.00163925 0
1.30602 0.00179601 0
1.27645 0.00182447 0
1.21479 0.00167202 0
1.09873 0.00132661 0
0.90336 0.000864058 0
0.611376 0.000425488 0
0.225668 0.000122485 0
-0.22525 -0.000174254 0
0.225149 -1.55259e-06 0
0.610306 -0.000175547 0
0.902303 -0.000520581 0
1.0982 -0.000878666 0
1.21494 -0.00110126 0
1.27711 -0.00110669 0
1.30688 -0.000907265 0
1.31976 -0.000573841 0
1.32475 -0.000185689 0
1.3264 0.000199034 0
1.32663 0.000548811 0
1.32599 0.000851028 0
1.324 0.00110046 0
1.31881 0.00128832 0
1.306 0.00139413 0
1.27661 0.00138513 0
1.21513 0.00123199 0
1.09919 0.000942748 0
0.903791 0.000588687 0
0.611675 0.000275679 0
0.225793 7.40135e-05 0
-0.225428 -0.000120398 0
0.225328 -1.07306e-06 0
0.610647 -0.000121396 0
0.902656 -0.000367717 0
1.09842 -0.00063376 0
1.21496 -0.000814668 0
1.27693 -0.000843316 0
1.30657 -0.00071656 0
1.31939 -0.000477951 0
1.32439 -0.000184092 0
1.32607 0.000118587 0
1.32634 0.000400699 0
1.32575 0.000646251 0
1.32383 0.000845261 0
1.31872 0.000986476 0
1.30601 0.00105257 0
1.27676 0.00102163 0
1.21542 0.000880307 0
1.09954 0.00064692 0
0.9041 0.000383428 0
0.611877 0.000166945 0
0.225872 3.94786e-05 0
-0.225554 -8.09446e-05 0
0.225455 -7.21637e-07 0
0.610892 -8.16866e-05 0
0.90292 -0.000253968 0
1.09861 -0.0004466 0
1.21499 -0.000587197 0
1.27681 -0.000623511 0
1.30635 -0.000545456 0
1.31911 -0.000378331 0
1.3241 -0.000161273 0
1.3258 7.00299e-05 0
1.32611 0.000290057 0
1.32557 0.000482347 0
1.3237 0.000635139 0
1.31866 0.000736881 0
1.30605 0.000773767 0
1.27691 0.000732162 0
1.21565 0.000608851 0
1.0998 0.000426075 0
0.904316 0.000235002 0
0.612007 9.04586e-05 0
0.225917 1.57334e-05 0
-0.225641 -5.28925e-05 0
0.225543 -4.71694e-07 0
0.611065 -5.343e-05 0
0.903113 -0.000171975 0
1.09875 -0.000308711 0
1.21503 -0.000414454 0
1.27674 -0.000450058 0
1.30619 -0.000403473 0
1.31891 -0.000288469 0
1.32389 -0.000131423 0
1.3256 4.10209e-05 0
1.32594 0.00020778 0
1.32543 0.000353637 0
1.32361 0.000466949 0
1.31863 0.000537128 0
1.3061 0.0005537 0
1.27703 0.000508953 0
1.21583 0.000405591 0
1.09999 0.000265958 0
0.904462 0.000130842 0
0.612086 3.84385e-05 0
0.225938 7.30302e-08 0
-0.225702 -3.34293e-05 0
0.225605 -2.98234e-07 0
0.611186 -3.38119e-05 0
0.903251 -0.000114348 0
1.09886 -0.000209985 0
1.21508 -0.000287627 0
1.27671 -0.000318728 0
1.30609 -0.000291843 0
1.31877 -0.000213865 0
1.32373 -0.000102231 0
1.32544 2.35917e-05 0
1.3258 0.000146823 0
1.32533 0.000254326 0
1.32355 0.000335624 0
1.31862 0.000381696 0
1.30615 0.000384938 0
1.27714 0.000341658 0
1.21598 0.000257582 0
1.10013 0.000153144 0
0.904558 6.00479e-05 0
0.612129 4.4415e-06 0
0.225945 -9.70734e-06 0
-0.225744 -2.01909e-05 0
0.225647 -1.80226e-07 0
0.61127 -2.04608e-05 0
0.90335 -7.46441e-05 0
1.09894 -0.000140849 0
1.21511 -0.000196899 0
1.27669 -0.000222358 0
1.30602 -0.000207472 0
1.31866 -0.000155275 0
1.32361 -7.71526e-05 0
1.32533 1.28931e-05 0
1.3257 0.000101875 0
1.32525 0.000178987 0
1.32351 0.00023538 0
1.31863 0.000263766 0
1.30619 0.000258858 0
1.27723 0.000219539 0
1.21608 0.000152709 0
1.10022 7.60352e-05 0
0.904618 1.37168e-05 0
0.61215 -1.66289e-05 0
0.225942 -1.53314e-05 0
-0.225773 -1.1325e-05 0
0.225676 -1.01181e-07 0
0.611329 -1.15154e-05 0
0.903421 -4.76914e-05 0
1.099 -9.32279e-05 0
1.21514 -0.000133248 0
1.27668 -0.000153285 0
1.30597 -0.000145537 0
1.31859 -0.000111022 0
1.32353 -5.71387e-05 0
1.32525 6.1446e-06 0
1.32564 6.89917e-05 0
1.32521 0.000122827 0
1.32349 0.000160514 0
1.31864 0.000176406 0
1.30624 0.000166999 0
1.2773 0.000132716 0
1.21616 8.05344e-05 0
1.10029 2.51785e-05 0
0.904653 -1.51165e-05 0
0.612154 -2.86602e-05 0
0.225933 -1.81012e-05 0
-0.225793 -5.45203e-06 0
0.225696 -4.88137e-08 0
0.61137 -5.58766e-06 0
0.903471 -2.95729e-05 0
1.09904 -6.07887e-05 0
1.21517 -8.91936e-05 0
1.27668 -0.000104598 0
1.30595 -0.000101004 0
1.31855 -7.84788e-05 0
1.32348 -4.18423e-05 0
1.3252 1.84684e-06 0
1.32559 4.52602e-05 0
1.32517 8.17809e-05 0
1.32348 0.000105853 0
1.31865 0.000113256 0
1.30628 0.000101799 0
1.27735 7.27407e-05 0
1.21622 3.25486e-05 0
1.10033 -6.80964e-06 0
0.904672 -3.17161e-05 0
0.61215 -3.45299e-05 0
0.225922 -1.89717e-05 0
-0.225807 -1.58327e-06 0
0.22571 -1.43151e-08 0
0.611399 -1.68171e-06 0
0.903507 -1.74416e-05 0
1.09908 -3.88063e-05 0
1.21519 -5.89254e-05 0
1.27668 -7.06159e-05 0
1.30593 -6.93805e-05 0
1.31852 -5.49086e-05 0
1.32344 -3.03716e-05 0
1.32516 -7.60923e-07 0
1.32556 2.85295e-05 0
1.32516 5.25052e-05 0
1.32348 6.69637e-05 0
1.31867 6.88477e-05 0
1.30631 5.68964e-05 0
1.2774 3.27475e-05 0
1.21627 2.09358e-06 0
1.10036 -2.55091e-05 0
0.904681 -3.99501e-05 0
0.612141 -3.63121e-05 0
0.22591 -1.86236e-05 0
-0.225817 9.68378e-07 0
0.22572 8.43826e-09 0
0.61142 8.95025e-07 0
0.903533 -9.29393e-06 0
1.0991 -2.38846e-05 0
1.21521 -3.81346e-05 0
1.27668 -4.69484e-05 0
1.30592 -4.70003e-05 0
1.3185 -3.7883e-05 0
1.32342 -2.17192e-05 0
1.32514 -2.0459e-06 0
1.32554 1.72009e-05 0
1.32515 3.23163e-05 0
1.32348 4.01951e-05 0
1.31869 3.86877e-05 0
1.30634 2.71657e-05 0
1.27743 7.36274e-06 0
1.2163 -1.58787e-05 0
1.10038 -3.50238e-05 0
0.904683 -4.25916e-05 0
0.61213 -3.54652e-05 0
0.225897 -1.75292e-05 0
-0.225824 2.66824e-06 0
0.225728 2.35944e-08 0
0.611436 2.61187e-06 0
0.903553 -3.75589e-06 0
1.09912 -1.36513e-05 0
1.21522 -2.37342e-05 0
1.27669 -3.03465e-05 0
1.30592 -3.10398e-05 0
1.31849 -2.54314e-05 0
1.32341 -1.49736e-05 0
1.32512 -2.18535e-06 0
1.32553 1.00765e-05 0
1.32515 1.91001e-05 0
1.32349 2.26348e-05 0
1.3187 1.9212e-05 0
1.30636 8.61317e-06 0
1.27746 -7.49695e-06 0
1.21632 -2.50969e-05 0
1.1004 -3.8301e-05 0
0.904682 -4.15823e-05 0
0.612118 -3.29884e-05 0
0.225886 -1.60063e-05 0
-0.22583 3.82423e-06 0
0.225733 3.38992e-08 0
0.611447 3.77956e-06 0
0.903568 9.44712e-08 0
1.09914 -6.48788e-06 0
1.21523 -1.35715e-05 0
1.2767 -1.84849e-05 0
1.30592 -1.9417e-05 0
1.31849 -1.60494e-05 0
1.3234 -9.40008e-06 0
1.32512 -1.27653e-06 0
1.32553 6.25174e-06 0
1.32515 1.12179e-05 0
1.3235 1.20158e-05 0
1.31872 7.66936e-06 0
1.30639 -1.79081e-06 0
1.27748 -1.48573e-05 0
1.21634 -2.82514e-05 0
1.10041 -3.74097e-05 0
0.904679 -3.8248e-05 0
0.612107 -2.95462e-05 0
0.225876 -1.42606e-05 0
-0.225834 4.63566e-06 0
0.225737 4.113e-08 0
0.611456 4.59926e-06 0
0.903579 2.86337e-06 0
1.09915 -1.31226e-06 0
1.21524 -6.17893e-06 0
1.2767 -9.74346e-06 0
1.30592 -1.06479e-05 0
1.31849 -8.63988e-06 0
1.3234 -4.45035e-06 0
1.32512 6.1025e-07 0
1.32553 5.03994e-06 0
1.32515 7.41865e-06 0
1.32351 6.61157e-06 0
1.31873 1.98679e-06 0
1.3064 -6.29009e-06 0
1.2775 -1.69094e-05 0
1.21636 -2.72394e-05 0
1.10041 -3.37661e-05 0
0.904676 -3.34675e-05 0
0.612097 -2.55634e-05 0
0.225867 -1.24186e-05 0
-0.225837 5.22836e-06 0
0.225741 4.64096e-08 0
0.611463 5.19808e-06 0
0.903589 4.94118e-06 0
1.09916 2.58483e-06 0
1.21525 -5.77338e-07 0
1.27671 -3.02076e-06 0
1.30593 -3.70545e-06 0
1.31849 -2.43269e-06 0
1.3234 2.60276e-07 0
1.32512 3.41048e-06 0
1.32553 5.92001e-06 0
1.32516 6.76139e-06 0
1.32351 5.13442e-06 0
1.31875 6.37139e-07 0
1.30642 -6.50805e-06 0
1.27752 -1.52018e-05 0
1.21637 -2.3364e-05 0
1.10042 -2.83097e-05 0
0.904673 -2.77991e-05 0
0.61209 -2.12954e-05 0
0.22586 -1.05513e-05 0
-0.225839 5.67929e-06 0
0.225743 5.04247e-08 0
0.611468 5.65374e-06 0
0.903596 6.57285e-06 0
1.09917 5.65762e-06 0
1.21526 3.87233e-06 0