# vtk DataFile Version 3.0
vtk output
ASCII
DATASET UNSTRUCTURED_GRID
POINTS 1913 double
0.045977 0 0
0.045977 0.0952381 0
0.045977 0.142857 0
0.045977 0.190476 0
0.045977 0.238095 0
0.045977 0.285714 0
0.045977 0.333333 0
0.045977 0.380952 0
0.045977 0.428571 0
0.045977 0.47619 0
0.045977 0.52381 0
0.045977 0.571429 0
0.045977 0.619048 0
0.045977 0.666667 0
0.045977 0.714286 0
0.045977 0.761905 0
0.045977 0.809524 0
0.045977 0.857143 0
0.045977 0.904762 0
0.045977 0.952381 0
0.045977 1 0
0.091954 0 0
0.091954 0.047619 0
0.091954 0.0952381 0
0.091954 0.142857 0
0.091954 0.190476 0
0.091954 0.238095 0
0.091954 0.285714 0
0.091954 0.333333 0
0.091954 0.380952 0
0.091954 0.428571 0
0.091954 0.47619 0
0.091954 0.52381 0
0.091954 0.571429 0
0.091954 0.619048 0
0.091954 0.666667 0
0.091954 0.714286 0
0.091954 0.761905 0
0.091954 0.809524 0
0.091954 0.857143 0
0.091954 0.904762 0
0.091954 0.952381 0
0.091954 1 0
0.137931 0 0
0.137931 0.047619 0
0.137931 0.0952381 0
0.137931 0.142857 0
0.137931 0.190476 0
0.137931 0.238095 0
0.137931 0.285714 0
0.137931 0.333333 0
0.137931 0.380952 0
0.137931 0.428571 0
0.137931 0.47619 0
0.137931 0.52381 0
0.137931 0.571429 0
0.137931 0.619048 0
0.137931 0.666667 0
0.137931 0.714286 0
0.137931 0.761905 0
0.137931 0.809524 0
0.137931 0.857143 0
0.137931 0.904762 0
0.137931 0.952381 0
0.137931 1 0
0.183908 0 0
0.183908 0.047619 0
0.183908 0.0952381 0
0.183908 0.142857 0
0.183908 0.190476 0
0.183908 0.238095 0
0.183908 0.285714 0
0.183908 0.333333 0
0.183908 0.380952 0
0.183908 0.428571 0
0.183908 0.47619 0
0.183908 0.52381 0
0.183908 0.571429 0
0.183908 0.619048 0
0.183908 0.666667 0
0.183908 0.714286 0
0.183908 0.761905 0
0.183908 0.809524 0
0.183908 0.857143 0
0.183908 0.904762 0
0.183908 0.952381 0
0.183908 1 0
0.229885 0 0
0.229885 0.047619 0
0.229885 0.0952381 0
0.229885 0.142857 0
0.229885 0.190476 0
0.229885 0.238095 0
0.229885 0.285714 0
0.229885 0.333333 0
0.229885 0.380952 0
0.229885 0.428571 0
0.229885 0.47619 0
0.229885 0.52381 0
0.229885 0.571429 0
0.229885 0.619048 0
0.229885 0.666667 0
0.229885 0.714286 0
0.229885 0.761905 0
0.229885 0.809524 0
0.229885 0.857143 0
0.229885 0.904762 0
0.229885 0.952381 0
0.229885 1 0
0.275862 0 0
0.275862 0.047619 0
0.275862 0.0952381 0
0.275862 0.142857 0
0.275862 0.190476 0
0.275862 0.238095 0
0.275862 0.285714 0
0.275862 0.333333 0
0.275862 0.380952 0
0.275862 0.428571 0
0.275862 0.47619 0
0.275862 0.52381 0
0.275862 0.571429 0
0.275862 0.619048 0
0.275862 0.666667 0
0.275862 0.714286 0
0.275862 0.761905 0
0.275862 0.809524 0
0.275862 0.857143 0
0.275862 0.904762 0
0.275862 0.952381 0
0.275862 1 0
0.321839 0 0
0.321839 0.047619 0
0.321839 0.0952381 0
0.321839 0.142857 0
0.321839 0.190476 0
0.321839 0.238095 0
0.321839 0.285714 0
0.321839 0.333333 0
0.321839 0.380952 0
0.321839 0.428571 0
0.321839 0.47619 0
0.321839 0.52381 0
0.321839 0.571429 0
0.321839 0.619048 0
0.321839 0.666667 0
0.321839 0.714286 0
0.321839 0.761905 0
0.321839 0.809524 0
0.321839 0.857143 0
0.321839 0.904762 0
0.321839 0.952381 0
0.321839 1 0
0.367816 0 0
0.367816 0.047619 0
0.367816 0.0952381 0
0.367816 0.142857 0
0.367816 0.190476 0
0.367816 0.238095 0
0.367816 0.285714 0
0.367816 0.333333 0
0.367816 0.380952 0
0.367816 0.428571 0
0.367816 0.47619 0
0.367816 0.52381 0
0.367816 0.571429 0
0.367816 0.619048 0
0.367816 0.666667 0
0.367816 0.714286 0
0.367816 0.761905 0
0.367816 0.809524 0
0.367816 0.857143 0
0.367816 0.904762 0
0.367816 0.952381 0
0.367816 1 0
0.413793 0 0
0.413793 0.047619 0
0.413793 0.0952381 0
0.413793 0.142857 0
0.413793 0.190476 0
0.413793 0.238095 0
0.413793 0.285714 0
0.413793 0.333333 0
0.413793 0.380952 0
0.413793 0.428571 0
0.413793 0.47619 0
0.413793 0.52381 0
0.413793 0.571429 0
0.413793 0.619048 0
0.413793 0.666667 0
0.413793 0.714286 0
0.413793 0.761905 0
0.413793 0.809524 0
0.413793 0.857143 0
0.413793 0.904762 0
0.413793 0.952381 0
0.413793 1 0
0.45977 0 0
0.45977 0.047619 0
0.45977 0.0952381 0
0.45977 0.142857 0
0.45977 0.190476 0
0.45977 0.238095 0
0.45977 0.285714 0
0.45977 0.333333 0
0.45977 0.380952 0
0.45977 0.428571 0
0.45977 0.47619 0
0.45977 0.52381 0
0.45977 0.571429 0
0.45977 0.619048 0
0.45977 0.666667 0
0.45977 0.714286 0
0.45977 0.761905 0
0.45977 0.809524 0
0.45977 0.857143 0
0.45977 0.904762 0
0.45977 0.952381 0
0.45977 1 0
0.505747 0 0
0.505747 0.047619 0
0.505747 0.0952381 0
0.505747 0.142857 0
0.505747 0.190476 0
0.505747 0.238095 0
0.505747 0.285714 0
0.505747 0.333333 0
0.505747 0.380952 0
0.505747 0.428571 0
0.505747 0.47619 0
0.505747 0.52381 0
0.505747 0.571429 0
0.505747 0.619048 0
0.505747 0.666667 0
0.505747 0.714286 0
0.505747 0.761905 0
0.505747 0.809524 0
0.505747 0.857143 0
0.505747 0.904762 0
0.505747 0.952381 0
0.505747 1 0
0.551724 0 0
0.551724 0.047619 0
0.551724 0.0952381 0
0.551724 0.142857 0
0.551724 0.190476 0
0.551724 0.238095 0
0.551724 0.285714 0
0.551724 0.333333 0
0.551724 0.380952 0
0.551724 0.428571 0
0.551724 0.47619 0
0.551724 0.52381 0
0.551724 0.571429 0
0.551724 0.619048 0
0.551724 0.666667 0
0.551724 0.714286 0
0.551724 0.761905 0
0.551724 0.809524 0
0.551724 0.857143 0
0.551724 0.904762 0
0.551724 0.952381 0
0.551724 1 0
0.597701 0 0
0.597701 0.047619 0
0.597701 0.0952381 0
0.597701 0.142857 0
0.597701 0.190476 0
0.597701 0.238095 0
0.597701 0.285714 0
0.597701 0.333333 0
0.597701 0.380952 0
0.597701 0.428571 0
0.597701 0.47619 0
0.597701 0.52381 0
0.597701 0.571429 0
0.597701 0.619048 0
0.597701 0.666667 0
0.597701 0.714286 0
0.597701 0.761905 0
0.597701 0.809524 0
0.597701 0.857143 0
0.597701 0.904762 0
0.597701 0.952381 0
0.597701 1 0
0.643678 0 0
0.643678 0.047619 0
0.643678 0.0952381 0
0.643678 0.142857 0
0.643678 0.190476 0
0.643678 0.238095 0
0.643678 0.285714 0
0.643678 0.333333 0
0.643678 0.380952 0
0.643678 0.428571 0
0.643678 0.47619 0
0.643678 0.52381 0
0.643678 0.571429 0
0.643678 0.619048 0
0.643678 0.666667 0
0.643678 0.714286 0
0.643678 0.761905 0
0.643678 0.809524 0
0.643678 0.857143 0
0.643678 0.904762 0
0.643678 0.952381 0
0.643678 1 0
0.689655 0 0
0.689655 0.047619 0
0.689655 0.0952381 0
0.689655 0.142857 0
0.689655 0.190476 0
0.689655 0.238095 0
0.689655 0.285714 0
0.689655 0.333333 0
0.689655 0.380952 0
0.689655 0.428571 0
0.689655 0.47619 0
0.689655 0.52381 0
0.689655 0.571429 0
0.689655 0.619048 0
0.689655 0.666667 0
0.689655 0.714286 0
0.689655 0.761905 0
0.689655 0.809524 0
0.689655 0.857143 0
0.689655 0.904762 0
0.689655 0.952381 0
0.689655 1 0
0.735632 0 0
0.735632 0.047619 0
0.735632 0.0952381 0
0.735632 0.142857 0
0.735632 0.190476 0
0.735632 0.238095 0
0.735632 0.285714 0
0.735632 0.333333 0
0.735632 0.380952 0
0.735632 0.428571 0
0.735632 0.47619 0
0.735632 0.52381 0
0.735632 0.571429 0
0.735632 0.619048 0
0.735632 0.666667 0
0.735632 0.714286 0
0.735632 0.761905 0
0.735632 0.809524 0
0.735632 0.857143 0
0.735632 0.904762 0
0.735632 0.952381 0
0.735632 1 0
0.781609 0 0
0.781609 0.047619 0
0.781609 0.0952381 0
0.781609 0.142857 0
0.781609 0.190476 0
0.781609 0.238095 0
0.781609 0.285714 0
0.781609 0.333333 0
0.781609 0.380952 0
0.781609 0.428571 0
0.781609 0.47619 0
0.781609 0.52381 0
0.781609 0.571429 0
0.781609 0.619048 0
0.781609 0.666667 0
0.781609 0.714286 0
0.781609 0.761905 0
0.781609 0.809524 0
0.781609 0.857143 0
0.781609 0.904762 0
0.781609 0.952381 0
0.781609 1 0
0.827586 0 0
0.827586 0.047619 0
0.827586 0.0952381 0
0.827586 0.142857 0
0.827586 0.190476 0
0.827586 0.238095 0
0.827586 0.285714 0
0.827586 0.333333 0
0.827586 0.380952 0
0.827586 0.428571 0
0.827586 0.47619 0
0.827586 0.52381 0
0.827586 0.571429 0
0.827586 0.619048 0
0.827586 0.666667 0
0.827586 0.714286 0
0.827586 0.761905 0
0.827586 0.809524 0
0.827586 0.857143 0
0.827586 0.904762 0
0.827586 0.952381 0
0.827586 1 0
0.873563 0 0
0.873563 0.047619 0
0.873563 0.0952381 0
0.873563 0.142857 0
0.873563 0.190476 0
0.873563 0.238095 0
0.873563 0.285714 0
0.873563 0.333333 0
0.873563 0.380952 0
0.873563 0.428571 0
0.873563 0.47619 0
0.873563 0.52381 0
0.873563 0.571429 0
0.873563 0.619048 0
0.873563 0.666667 0
0.873563 0.714286 0
0.873563 0.761905 0
0.873563 0.809524 0
0.873563 0.857143 0
0.873563 0.904762 0
0.873563 0.952381 0
0.873563 1 0
0.91954 0 0
0.91954 0.047619 0
0.91954 0.0952381 0
0.91954 0.142857 0
0.91954 0.190476 0
0.91954 0.238095 0
0.91954 0.285714 0
0.91954 0.333333 0
0.91954 0.380952 0
0.91954 0.428571 0
0.91954 0.47619 0
0.91954 0.52381 0
0.91954 0.571429 0
0.91954 0.619048 0
0.91954 0.666667 0
0.91954 0.714286 0
0.91954 0.761905 0
0.91954 0.809524 0
0.91954 0.857143 0
0.91954 0.904762 0
0.91954 0.952381 0
0.91954 1 0
0.965517 0 0
0.965517 0.047619 0
0.965517 0.0952381 0
0.965517 0.142857 0
0.965517 0.190476 0
0.965517 0.238095 0
0.965517 0.285714 0
0.965517 0.333333 0
0.965517 0.380952 0
0.965517 0.428571 0
0.965517 0.47619 0
0.965517 0.52381 0
0.965517 0.571429 0
0.965517 0.619048 0
0.965517 0.666667 0
0.965517 0.714286 0
0.965517 0.761905 0
0.965517 0.809524 0
0.965517 0.857143 0
0.965517 0.904762 0
0.965517 0.952381 0
0.965517 1 0
1.01149 0 0
1.01149 0.047619 0
1.01149 0.0952381 0
1.01149 0.142857 0
1.01149 0.190476 0
1.01149 0.238095 0
1.01149 0.285714 0
1.01149 0.333333 0
1.01149 0.380952 0
1.01149 0.428571 0
1.01149 0.47619 0
1.01149 0.52381 0
1.01149 0.571429 0
1.01149 0.619048 0
1.01149 0.666667 0
1.01149 0.714286 0
1.01149 0.761905 0
1.01149 0.809524 0
1.01149 0.857143 0
1.01149 0.904762 0
1.01149 0.952381 0
1.01149 1 0
1.05747 0 0
1.05747 0.047619 0
1.05747 0.0952381 0
1.05747 0.142857 0
1.05747 0.190476 0
1.05747 0.238095 0
1.05747 0.285714 0
1.05747 0.333333 0
1.05747 0.380952 0
1.05747 0.428571 0
1.05747 0.47619 0
1.05747 0.52381 0
1.05747 0.571429 0
1.05747 0.619048 0
1.05747 0.666667 0
1.05747 0.714286 0
1.05747 0.761905 0
1.05747 0.809524 0
1.05747 0.857143 0
1.05747 0.904762 0
1.05747 0.952381 0
1.05747 1 0
1.10345 0 0
1.10345 0.047619 0
1.10345 0.0952381 0
1.10345 0.142857 0
1.10345 0.190476 0
1.10345 0.238095 0
1.10345 0.285714 0
1.10345 0.333333 0
1.10345 0.380952 0
1.10345 0.428571 0
1.10345 0.47619 0
1.10345 0.52381 0
1.10345 0.571429 0
[...]
POINT_DATA 1913
VECTORS velocity[m/s] double
-0 0.20948 0
0 0.20948 0
0 0.209438 0
0 0.18105 0
0 0.150739 0
0 0.121999 0
0 0.0949942 0
0 0.0693863 0
0 0.0447573 0
0 0.0206928 0
0 -0.00320724 0
0 -0.0273435 0
0 -0.0521442 0
0 -0.0781008 0
0 -0.105815 0
0 -0.136066 0
0 -0.169898 0
0 -0.208735 0
0 -0.254082 0
0 -0.302585 0
0 -0.309786 0
-0.872361 0.185244 0
0.872361 0.00163385 0
1.07466 0.185244 0
1.10203 0.20887 0
1.10388 0.184505 0
1.10237 0.153127 0
1.10069 0.123354 0
1.09934 0.095795 0
1.0984 0.0698773 0
1.09785 0.0450383 0
1.09769 0.0208049 0
1.09792 -0.00324715 0
1.09856 -0.0275307 0
1.09967 -0.0524827 0
1.10137 -0.0786058 0
1.10382 -0.106526 0
1.10728 -0.137082 0
1.11211 -0.17146 0
1.11839 -0.21105 0
1.12144 -0.254887 0
1.08156 -0.286171 0
0.775507 -0.235163 0
-0.695083 0.144682 0
0.695083 0.00129614 0
1.05185 0.144682 0
1.12555 0.189945 0
1.13418 0.178744 0
1.13111 0.151322 0
1.1273 0.122393 0
1.12437 0.0950916 0
1.12238 0.0693865 0
1.12125 0.0447655 0
1.12091 0.0207511 0
1.12136 -0.00307358 0
1.12265 -0.0271037 0
1.1249 -0.0517502 0
1.12833 -0.0774801 0
1.13332 -0.104869 0
1.14047 -0.134658 0
1.15033 -0.167646 0
1.16072 -0.203482 0
1.15165 -0.235169 0
1.03231 -0.234648 0
0.548453 -0.146283 0
-0.556642 0.105546 0
0.556642 0.000944872 0
1.00815 0.105546 0
1.13637 0.16179 0
1.16066 0.164769 0
1.15904 0.144709 0
1.15366 0.118771 0
1.14918 0.0928032 0
1.14615 0.0679235 0
1.14444 0.0439595 0
1.14392 0.0205371 0
1.14457 -0.00270652 0
1.14645 -0.0261159 0
1.14974 -0.0500429 0
1.15478 -0.0748755 0
1.16209 -0.10106 0
1.17232 -0.129045 0
1.18494 -0.158758 0
1.19132 -0.187356 0
1.15114 -0.202925 0
0.946997 -0.176712 0
0.407215 -0.0836603 0
-0.455649 0.0738509 0
0.455649 0.000660508 0
0.953841 0.0738509 0
1.13349 0.132278 0
1.18003 0.146343 0
1.18409 0.134421 0
1.17873 0.112805 0
1.17321 0.089081 0
1.16929 0.0655879 0
1.16705 0.0426776 0
1.16636 0.0201759 0
1.16717 -0.00218009 0
1.16955 -0.0246572 0
1.17372 -0.0475241 0
1.18006 -0.0710593 0
1.18911 -0.0955241 0
1.20101 -0.120954 0
1.21255 -0.146251 0
1.20635 -0.166449 0
1.12584 -0.167745 0
0.857154 -0.127986 0
0.326441 -0.0478225 0
-0.384983 0.0504916 0
0.384983 0.000451222 0
0.897429 0.0504916 0
1.11991 0.105601 0
1.19154 0.126794 0
1.20496 0.122132 0
1.20164 0.105237 0
1.19589 0.0842873 0
1.19141 0.0625814 0
1.18878 0.0410251 0
1.18795 0.0196979 0
1.18887 -0.00153434 0
1.19163 -0.022845 0
1.19644 -0.0444087 0
1.20368 -0.0663819 0
1.21366 -0.0888192 0
1.22544 -0.111319 0
1.23205 -0.131871 0
1.2076 -0.144245 0
1.08745 -0.135337 0
0.779755 -0.0917593 0
0.280268 -0.02866 0
-0.336669 0.0343625 0
0.336669 0.000306862 0
0.844221 0.0343625 0
1.09945 0.0833715 0
1.19604 0.108251 0
1.22127 0.109308 0
1.22187 0.0968739 0
1.21685 0.0788624 0
1.21222 0.0591528 0
1.20937 0.0391338 0
1.20845 0.0191449 0
1.20945 -0.000808998 0
1.21245 -0.0208048 0
1.21766 -0.0409245 0
1.22534 -0.0612056 0
1.23538 -0.081502 0
1.24528 -0.101017 0
1.244 -0.117071 0
1.199 -0.123021 0
1.04537 -0.107942 0
0.718833 -0.0662267 0
0.252597 -0.0183058 0
-0.303789 0.0237173 0
0.303789 0.000211651 0
0.796903 0.0237173 0
1.07543 0.0657352 0
1.19502 0.0917738 0
1.23328 0.0969519 0
1.23926 0.0883888 0
1.23588 0.0732132 0
1.23155 0.0555445 0
1.22867 0.037135 0
1.22771 0.0185609 0
1.22876 -3.95964e-05 0
1.23188 -0.0186536 0
1.23724 -0.0372801 0
1.24494 -0.0558506 0
1.25423 -0.0740401 0
1.26078 -0.0907298 0
1.24974 -0.102837 0
1.18444 -0.103944 0
1.0051 -0.085828 0
0.672565 -0.0485418 0
0.234923 -0.0124067 0
-0.281094 0.0168661 0
0.281095 0.000150407 0
0.756334 0.0168661 0
1.05029 0.052147 0
1.19002 0.0777034 0
1.24155 0.0856298 0
1.25391 0.0802468 0
1.25294 0.0676556 0
1.24933 0.0519556 0
1.2466 0.0351408 0
1.24567 0.0179846 0
1.24673 0.000744279 0
1.24986 -0.0164896 0
1.25517 -0.0336464 0
1.2625 -0.0505679 0
1.27034 -0.0667784 0
1.27247 -0.0809187 0
1.25081 -0.0897347 0
1.16695 -0.0874304 0
0.969098 -0.0684075 0
0.637676 -0.0362685 0
0.222944 -0.00881776 0
-0.264956 0.0124754 0
0.264957 0.000111178 0
0.72227 0.0124754 0
1.02561 0.0418377 0
1.18237 0.0659743 0
1.24675 0.0755824 0
1.26607 0.0727207 0
1.2681 0.0624006 0
1.26556 0.0485289 0
1.26317 0.0332344 0
1.26232 0.017445 0
1.26337 0.00151927 0
1.26643 -0.0143875 0
1.27151 -0.0301491 0
1.27816 -0.0455335 0
1.28399 -0.0599426 0
1.28098 -0.071854 0
1.24859 -0.0780213 0
1.14858 -0.0734687 0
0.938068 -0.0548472 0
0.611173 -0.0276504 0
0.214431 -0.00650304 0
-0.253019 0.00961827 0
0.25302 8.56648e-05 0
0.693921 0.00961825 0
1.00231 0.0340562 0
1.17309 0.0563307 0
1.24951 0.0668455 0
1.27603 0.0659352 0
1.28149 0.0575673 0
1.28033 0.0453518 0
1.27841 0.0314684 0
1.2777 0.0169596 0
1.27873 0.00226774 0
1.28165 -0.0123992 0
1.28636 -0.0268713 0
1.29207 -0.0408564 0
1.2955 -0.0536601 0
1.28694 -0.0636636 0
1.24419 -0.0677554 0
1.13061 -0.0618376 0
0.91181 -0.0443386 0
0.590755 -0.0215029 0
0.208153 -0.00494297 0
-0.243816 0.00770199 0
0.243817 6.85637e-05 0
0.670327 0.00770196 0
0.980804 0.0281694 0
1.16294 0.0484557 0
1.25039 0.0593416 0
1.28411 0.0599165 0
1.29329 0.0532047 0
1.29374 0.0424666 0
1.29242 0.0298695 0
1.29188 0.016536 0
1.29289 0.00297695 0
1.29562 -0.0105569 0
1.29987 -0.0238603 0
1.30443 -0.0365924 0
1.30515 -0.0479854 0
1.29089 -0.0563788 0
1.23848 -0.058879 0
1.11371 -0.052235 0
0.889762 -0.0361943 0
0.574767 -0.0170446 0
0.203381 -0.00385791 0
-0.236447 0.00636721 0
0.236447 5.66592e-05 0
0.650566 0.00636717 0
0.961217 0.023683 0
1.15243 0.042038 0
1.24983 0.052941 0
1.29059 0.0546315 0
1.30366 0.0493148 0
1.3059 0.0398825 0
1.3053 0.0284441 0
1.30497 0.0161741 0
1.30596 0.00363824 0
1.30847 -0.00887645 0
1.31216 -0.0211358 0
1.31543 -0.0327583 0
1.31326 -0.0429227 0
1.29331 -0.0499707 0
1.23207 -0.0512735 0
1.09822 -0.0443476 0
0.871273 -0.0298641 0
0.562035 -0.0137602 0
0.199657 -0.00308565 0
-0.230355 0.00540112 0
0.230355 4.80477e-05 0
0.633847 0.00540108 0
0.943496 0.0202275 0
1.1419 0.0368011 0
1.2482 0.0474979 0
1.29573 0.0500165 0
1.31276 0.045871 0
1.31694 0.0375871 0
1.31715 0.0271852 0
1.31708 0.0158682 0
1.31804 0.00424622 0
1.3203 -0.00736238 0
1.32338 -0.018698 0
1.32525 -0.0293448 0
1.32006 -0.038445 0
1.29456 -0.0443761 0
1.22538 -0.0447955 0
1.08424 -0.0378839 0
0.855725 -0.0249208 0
0.551729 -0.0113054 0
0.196678 -0.00252602 0
-0.225187 0.00467744 0
0.225188 4.15999e-05 0
0.619533 0.0046774 0
0.927494 0.0175326 0
1.13158 0.032512 0
1.24577 0.0428701 0
1.29973 0.0459954 0
1.32076 0.042832 0
1.32699 0.0355559 0
1.32807 0.0260777 0
1.3283 0.0156098 0
1.32925 0.00479816 0
1.33125 -0.0060109 0
1.33366 -0.016534 0
1.33403 -0.0263261 0
1.32579 -0.0345074 0
1.29497 -0.0395156 0
1.21871 -0.0392966 0
1.07172 -0.032588 0
0.84258 -0.0210381 0
0.543253 -0.00944626 0
0.19424 -0.00211423 0
-0.220712 0.00411941 0
0.220713 3.66297e-05 0
0.607122 0.00411936 0
0.913032 0.0154026 0
1.12158 0.0289801 0
1.24275 0.0389279 0
1.30279 0.0424904 0
1.32779 0.0401504 0
1.33614 0.0337583 0
1.33818 0.0251024 0
1.33874 0.0153895 0
1.33969 0.00529338 0
1.34141 -0.00481306 0
1.34312 -0.0146236 0
1.34193 -0.023668 0
1.33063 -0.0310565 0
1.29476 -0.0353044 0
1.21223 -0.0346359 0
1.06057 -0.0282427 0
0.831388 -0.0179679 0
0.536175 -0.00802102 0
0.192199 -0.00180699 0
-0.216771 0.00367851 0
0.216772 3.2704e-05 0
0.596228 0.00367847 0
0.899923 0.0136956 0
1.11197 0.0260521 0
1.23932 0.0355581 0
1.30505 0.0394284 0
1.33396 0.0377789 0
1.3445 0.0321629 0
1.34756 0.0242394 0
1.34849 0.0151975 0
1.34945 0.00573283 0
1.35088 -0.00375687 0
1.35185 -0.0129426 0
1.34907 -0.0213325 0
1.33473 -0.0280366 0
1.29411 -0.0316596 0
1.20606 -0.0306852 0
1.05065 -0.0246673 0
0.821785 -0.0155224 0
0.530176 -0.00691549 0
0.190455 -0.00157464 0
-0.213252 0.00332279 0
0.213252 2.95375e-05 0
0.586557 0.00332274 0
0.887994 0.0123085 0
1.10279 0.0236059 0
1.23558 0.0326639 0
1.30664 0.0367432 0
1.33938 0.0356732 0
1.35215 0.0307395 0
1.35629 0.0234695 0
1.35763 0.0150252 0
1.35861 0.00611863 0
1.35975 -0.00282891 0
1.35995 -0.0114658 0
1.35554 -0.0192812 0
1.33823 -0.0253938 0
1.29317 -0.0285036 0
1.20025 -0.0273314 0
1.04182 -0.0217135 0
0.813476 -0.0135587 0
0.525019 -0.00604788 0
0.188935 -0.00139646 0
-0.210073 0.00303032 0
0.210074 2.69346e-05 0
0.577882 0.00303027 0
0.877086 0.0111656 0
1.09405 0.0215448 0
1.23164 0.0301639 0
1.30767 0.0343772 0
1.34415 0.0337936 0
1.35917 0.0294606 0
1.36444 0.0227754 0
1.36623 0.0148654 0
1.36725 0.00645378 0
1.36809 -0.00201541 0
1.3675 -0.0101681 0
1.36144 -0.0174776 0
1.34123 -0.0230775 0
1.29204 -0.0257662 0
1.19482 -0.0244766 0
1.03395 -0.0192608 0
0.806224 -0.0119682 0
0.520529 -0.00535874 0
0.187587 -0.00125776 0
-0.207174 0.00278566 0
0.207175 2.47575e-05 0
0.570028 0.00278561 0
0.867066 0.0102108 0
1.08573 0.0197921 0
1.22757 0.0279905 0
1.30824 0.0322806 0
1.34833 0.0321053 0
1.36562 0.0283025 0
1.37208 0.0221422 0
1.37435 0.014712 0
1.37543 0.00674181 0
1.37596 -0.00130295 0
1.37456 -0.00902619 0
1.36685 -0.0158879 0
1.34383 -0.0210424 0
1.2908 -0.0233854 0
1.18979 -0.0220375 0
1.02691 -0.0172118 0
0.799843 -0.0106678 0
0.51657 -0.00480438 0
0.186374 -0.00114798 0
-0.204509 0.00257764 0
0.20451 2.29069e-05 0
0.562859 0.00257759 0
0.857815 0.00940247 0
1.07781 0.0182878 0
1.22343 0.0260878 0
1.30841 0.0304114 0
1.352 0.0305788 0
1.37157 0.0272446 0
1.37926 0.0215574 0
1.38205 0.0145604 0
1.38319 0.00698661 0
1.38342 -0.000678892 0
1.38118 -0.00801867 0
1.37183 -0.014482 0
1.34609 -0.0192478 0
1.2895 -0.021307 0
1.18513 -0.0199436 0
1.02059 -0.0154882 0
0.794183 -0.00959366 0
0.51304 -0.00435239 0
0.185266 -0.00105948 0
-0.202043 0.00239811 0
0.202044 2.13099e-05 0
0.55627 0.00239805 0
0.849237 0.0087093 0
1.07028 0.0169841 0
1.21926 0.0244101 0
1.30825 0.0287342 0
1.35522 0.0291891 0
1.37706 0.0262702 0
1.38601 0.0210108 0
1.38936 0.0144074 0
1.3906 0.00719217 0
1.39051 -0.000131647 0
1.38742 -0.00712641 0
1.37643 -0.0132332 0
1.34808 -0.0176585 0
1.28818 -0.0194844 0
1.18083 -0.018136 0
1.0149 -0.0140267 0
0.789123 -0.00869676 0
0.509862 -0.00397851 0
0.184243 -0.000986694 0
-0.19975 0.00224102 0
0.19975 1.99128e-05 0
0.550177 0.00224097 0
0.841248 0.00810755 0
1.06311 0.0158437 0
1.21508 0.0229199 0
1.30781 0.0272195 0
1.35804 0.0279152 0
1.38214 0.0253652 0
1.39239 0.0204943 0
1.39633 0.0142507 0
1.39767 0.00736245 0
1.39726 0.000349233 0
1.39332 -0.00633256 0
1.3807 -0.0121182 0
1.34984 -0.0162438 0
1.28688 -0.0178776 0
1.17686 -0.0165656 0
1.00976 -0.0127769 0
0.784568 -0.00793906 0
0.506974 -0.00366448 0
0.183291 -0.000925524 0
-0.197606 0.00210187 0
0.197607 1.86754e-05 0
0.544513 0.00210182 0
0.833779 0.00757915 0
1.05628 0.0148367 0
1.21093 0.0215863 0
1.30714 0.0258428 0
1.3605 0.0267399 0
1.38685 0.024518 0
1.39842 0.0200013 0
1.40298 0.0140886 0
1.40444 0.00750125 0
1.40371 0.000773009 0
1.39891 -0.00562249 0
1.38469 -0.011117 0
1.35142 -0.0149775 0
1.28561 -0.0164528 0
1.1732 -0.0151916 0
1.00509 -0.0116982 0
0.780441 -0.00729109 0
0.50433 -0.00339649 0
0.182398 -0.000872956 0
-0.195595 0.00197727 0
0.195596 1.75675e-05 0
0.539226 0.00197722 0
0.826773 0.00711025 0
1.04976 0.0139396 0
1.20682 0.0203844 0
1.30627 0.0245837 0
1.36265 0.0256487 0
1.39121 0.0237196 0
1.40413 0.019527 0
1.40934 0.0139205 0
1.41094 0.00761213 0
1.40989 0.00114778 0
1.40421 -0.00498362 0
1.38842 -0.0102124 0
1.35285 -0.0138372 0
1.2844 -0.0151812 0
1.16983 -0.0139803 0
1.00083 -0.010758 0
0.776682 -0.00672984 0
0.501894 -0.00316399 0
0.181556 -0.000826757 0
-0.193704 0.00186463 0
0.193705 1.65661e-05 0
0.53427 0.00186458 0
0.82018 0.00669009 0
1.04354 0.0131337 0
1.20277 0.0192937 0
1.30524 0.023425 0
1.36451 0.0246296 0
1.39526 0.0229622 0
1.40954 0.0190673 0
1.41543 0.0137458 0
1.41718 0.0076983 0
1.41581 0.00148053 0
1.40926 -0.00440524 0
1.39192 -0.00938984 0
1.35414 -0.0128039 0
1.28324 -0.0140389 0
1.16672 -0.0129039 0
0.996944 -0.00993015 0
0.773239 -0.00623735 0
0.499638 -0.00295896 0
0.180759 -0.000785268 0
-0.191921 0.00176197 0
0.191922 1.56535e-05 0
0.529612 0.00176193 0
0.813959 0.00631029 0
1.0376 0.012404 0
1.19878 0.0182971 0
1.30408 0.0223528 0
1.36612 0.0236727 0
1.39902 0.0222396 0
1.41468 0.0186191 0
1.42127 0.0135643 0
1.42318 0.0077626 0
1.42149 0.00177719 0
1.41408 -0.00387833 0
1.39521 -0.00863717 0
1.35534 -0.0118615 0
1.28214 -0.0130056 0
1.16385 -0.0119394 0
0.993379 -0.00919356 0
0.770075 -0.0057995 0
0.49754 -0.00277519 0
0.180001 -0.000747245 0
-0.190236 0.00166775 0
0.190237 1.4816e-05 0
0.525221 0.00166771 0
0.808076 0.00596426 0
1.03191 0.0117383 0
1.19487 0.0173808 0
1.30281 0.0213549 0
1.36751 0.0227695 0
1.40251 0.0215466 0
1.41956 0.0181799 0
1.42687 0.0133761 0
1.42896 0.00780744 0
1.42696 0.00204272 0
1.41867 -0.00339538 0
1.39833 -0.00794409 0
1.35644 -0.0109967 0
1.28111 -0.0120642 0
1.1612 -0.011068 0
0.990102 -0.00853135 0
0.767155 -0.00540521 0
0.495582 -0.00260792 0
0.17928 -0.000711755 0
-0.188641 0.00158076 0
0.188642 1.40427e-05 0
0.521073 0.00158072 0
0.802501 0.00564672 0
1.02646 0.0111269 0
1.19103 0.0165331 0
1.30144 0.0204212 0
1.36869 0.0219128 0
1.40577 0.0208789 0
1.4242 0.0177477 0
1.43225 0.0131809 0
1.43453 0.00783477 0
1.43221 0.00228116 0
1.42306 -0.00295022 0
1.40127 -0.0073021 0
1.35747 -0.010198 0
1.28015 -0.0112008 0
1.15875 -0.0102741 0
0.987085 -0.00792988 0
0.764455 -0.00504571 0
0.493752 -0.00245346 0
0.178594 -0.000678091 0
-0.187129 0.00150001 0
0.18713 1.3325e-05 0
0.517148 0.00149998 0
0.797211 0.00535341 0
1.02124 0.0105615 0
1.18728 0.0157441 0
1.3 0.019543 0
1.36969 0.0210962 0
1.40879 0.0202324 0
1.42861 0.0173204 0
1.43741 0.0129787 0
1.43989 0.00784607 0
1.43726 0.00249569 0
1.42727 -0.00253787 0
1.40407 -0.00670425 0
1.35844 -0.00945631 0
1.27926 -0.0104037 0
1.15649 -0.00954498 0
0.984301 -0.00737823 0
0.761953 -0.00471413 0
0.492039 -0.00230896 0
0.17794 -0.000645723 0
-0.185694 0.0014247 0
0.185696 1.26558e-05 0
0.513428 0.00142468 0
0.792183 0.00508083 0
1.01624 0.0100355 0
1.18361 0.0150057 0
1.2985 0.0187126 0
1.37052 0.0203141 0
1.4116 0.0196036 0
1.4328 0.0168962 0
1.44237 0.0127689 0
1.44506 0.00784234 0
1.44212 0.00268873 0
1.43129 -0.00215444 0
1.40673 -0.00614492 0
1.35936 -0.00876385 0
1.27843 -0.00966314 0
1.1544 -0.00887038 0
0.981729 -0.00686767 0
0.759631 -0.00440509 0
0.490433 -0.00217224 0
0.177317 -0.000614254 0
-0.184332 0.00135418 0
0.184333 1.20291e-05 0
0.509898 0.00135417 0
0.7874 0.00482607 0
1.01144 0.00954308 0
1.18003 0.0143104 0
1.29696 0.0179233 0
1.37121 0.0195613 0
1.41422 0.0189891 0
1.43679 0.0164732 0
1.44712 0.012551 0
1.45003 0.00782407 0
1.4468 0.00286195 0
1.43514 -0.001797 0
1.40926 -0.00561968 0
1.36023 -0.00811445 0
1.27766 -0.00897138 0
1.15247 -0.00824192 0
0.979352 -0.00639126 0
0.757476 -0.0041144 0
0.48893 -0.00204166 0
0.176724 -0.000583398 0
-0.183037 0.00128789 0
0.183038 1.144e-05 0
0.506547 0.00128789 0
0.782846 0.00458668 0
1.00684 0.00907945 0
1.17654 0.0136521 0
1.29538 0.0171689 0
1.37176 0.0188331 0
1.41665 0.0183858 0
1.44057 0.0160495 0
1.45169 0.012324 0
1.45483 0.00779128 0
1.45129 0.00301633 0
1.43884 -0.00146346 0
1.41167 -0.00512516 0
1.36106 -0.0075032 0
1.27696 -0.00832211 0
1.15068 -0.00765297 0
0.977154 -0.00594362 0
0.755475 -0.00383893 0
0.487522 -0.00191605 0
0.176162 -0.000552962 0
-0.181805 0.00122533 0
0.181807 1.08841e-05 0
0.503362 0.00122534 0
0.778509 0.00436049 0
1.00242 0.00864027 0
1.17315 0.013025 0
1.29377 0.0164439 0
1.3722 0.0181248 0
1.4189 0.0177901 0
1.44417 0.0156228 0
1.45607 0.0120866 0
1.45944 0.0077435 0
1.45562 0.00315225 0
1.44237 -0.00115252 0
1.41396 -0.00465891 0
1.36185 -0.00692631 0
1.27632 -0.00771039 0
1.14903 -0.00709837 0
0.975123 -0.00552064 0
0.75362 -0.00357637 0
0.486207 -0.00179459 0
0.175629 -0.000522834 0
-0.180634 0.00116607 0
0.180635 1.03576e-05 0
0.500336 0.0011661 0
0.774377 0.00414562 0
0.998189 0.00822171 0
1.16985 0.0124239 0
1.29215 0.0157429 0
1.37252 0.017432 0
1.421 0.0171988 0
1.44759 0.0151907 0
1.46026 0.0118372 0
1.46387 0.00767984 0
1.45978 0.00326951 0
1.44576 -0.000863576 0
1.41615 -0.00421932 0
1.3626 -0.00638101 0
1.27573 -0.00713248 0
1.14751 -0.00657419 0
0.973247 -0.00511932 0
0.7519 -0.00332515 0
0.48498 -0.00167681 0
0.175125 -0.000492976 0
-0.179519 0.0011097 0
0.17952 9.85671e-06 0
0.49746 0.00110974 0
0.770442 0.00394029 0
0.994132 0.00782024 0
1.16664 0.011844 0
1.29052 0.015061 0
1.37275 0.0167502 0
1.42294 0.0166084 0
1.45083 0.0147506 0
1.46427 0.0115739 0
1.46813 0.00759898 0
1.46377 0.0033674 0
1.449 -0.000596617 0
1.41824 -0.00380549 0
1.36333 -0.00586539 0
1.27519 -0.00658568 0
1.1461 -0.00607763 0
0.971515 -0.00473761 0
0.750309 -0.00308431 0
0.483838 -0.00156253 0
0.174649 -0.000463415 0
-0.178458 0.0010558 0
0.178459 9.37789e-06 0
0.494728 0.00105587 0
0.766697 0.00374284 0
0.990248 0.00743252 0
1.16354 0.0112809 0
1.28889 0.0143931 0
1.37288 0.016075 0
1.42473 0.0160153 0
1.45389 0.0142997 0
1.46811 0.0112945 0
1.47222 0.00749924 0
1.4676 0.00344479 0
1.4521 -0.00035215 0
1.42023 -0.00341714 0
1.36403 -0.00537829 0
1.2747 -0.00606815 0
1.14481 -0.00560682 0
0.969919 -0.00437423 0
0.748841 -0.00285342 0
0.482777 -0.00145178 0
0.174203 -0.000434234 0
-0.177449 0.00100395 0
0.17745 8.91729e-06 0
0.492134 0.00100405 0
0.763135 0.0035516 0
0.986533 0.00705533 0
1.16053 0.01073 0
1.28726 0.0137346 0
1.37294 0.0154021 0
1.42639 0.0154157 0
1.4568 0.0138349 0
1.47178 0.0109965 0
1.47613 0.00737866 0
1.47126 0.00350019 0
1.45506 -0.0001311 0
1.42213 -0.00305451 0
1.36469 -0.0049192 0
1.27425 -0.00557885 0
1.14362 -0.00516066 0
0.968452 -0.00402859 0
0.747488 -0.00263246 0
0.481796 -0.00134479 0
0.173784 -0.000405563 0
-0.176489 0.000953682 0
0.17649 8.47076e-06 0
0.489675 0.000953815 0
0.759753 0.00336487 0
0.982986 0.00668549 0
1.15763 0.010187 0
1.28566 0.0130806 0
1.37293 0.0147269 0
1.42791 0.0148058 0
1.45954 0.0133532 0
1.47527 0.0106774 0
1.47988 0.00723508 0
1.47477 0.00353188 0
1.45788 6.52991e-05 0
1.42393 -0.00271823 0
1.36533 -0.00448811 0
1.27385 -0.00511732 0
1.14253 -0.00473869 0
0.967105 -0.00370061 0
0.746246 -0.00242171 0
0.48089 -0.00124193 0
0.173393 -0.000377567 0
-0.175577 0.000904472 0
0.175578 8.03367e-06 0
0.487348 0.000904649 0
0.756547 0.0031809 0
0.979605 0.00631983 0
1.15484 0.00964777 0
1.28407 0.0124268 0
1.37285 0.0140452 0
1.42932 0.014182 0
1.46212 0.0128513 0
1.4786 0.0103344 0
1.48345 0.00706626 0
1.47812 0.00353799 0
1.46057 0.000235623 0
1.42564 -0.0024092 0
1.36594 -0.0040854 0
1.27349 -0.00468357 0
1.14153 -0.00434093 0
0.965871 -0.00339057 0
0.745107 -0.00222171 0
0.480056 -0.00114364 0
0.17303 -0.000350433 0
-0.174713 0.000855754 0
0.174714 7.601e-06 0
0.485151 0.000855985 0
0.753517 0.00299789 0
0.976393 0.0059552 0
1.15216 0.00910813 0
1.2825 0.0117685 0
1.37272 0.0133528 0
1.4306 0.0135405 0
1.46455 0.0123261 0
1.48175 0.00996506 0
1.48686 0.00686998 0
1.48131 0.00351667 0
1.46312 0.000378391 0
1.42726 -0.00212846 0
1.36652 -0.00371165 0
1.27316 -0.00427792 0
1.14061 -0.0039677 0
0.964743 -0.00309899 0
0.744067 -0.00203306 0
0.479291 -0.00105042 0
0.172692 -0.000324352 0
-0.173895 0.000806928 0
0.173895 7.16743e-06 0
0.483083 0.000807227 0
0.750663 0.00281408 0
0.973349 0.00558859 0
1.14959 0.00856422 0
1.28098 0.0111017 0
1.37254 0.0126459 0
1.43178 0.012878 0
1.46683 0.011775 0
1.48474 0.00956692 0
1.4901 0.00664424 0
1.48434 0.0034662 0
1.46554 0.00049221 0
1.42879 -0.00187704 0
1.36707 -0.00336754 0
1.27286 -0.00390083 0
1.13977 -0.00361947 0
0.963715 -0.00282646 0
0.74312 -0.00185639 0
0.478591 -0.000962714 0
0.17238 -0.00029951 0
-0.173124 0.000757397 0
0.173124 6.72763e-06 0
0.481146 0.000757775 0
0.747985 0.00262778 0
0.970477 0.00521727 0
1.14714 0.00801259 0
1.27949 0.0104227 0
1.37232 0.011921 0
1.43284 0.0121918 0
1.46897 0.0111955 0
1.48756 0.00913808 0
1.49317 0.00638738 0
1.48721 0.00338516 0
1.46783 0.00057592 0
1.43023 -0.0016558 0
1.36758 -0.00305367 0
1.27259 -0.00355276 0
1.13901 -0.00329671 0
0.962779 -0.00257354 0
0.742258 -0.00169224 0
0.477951 -0.00088091 0
0.172092 -0.000276066 0
-0.1724 0.000706608 0
0.1724 6.27671e-06 0
0.479342 0.000707078 0
0.745485 0.00243756 0
0.967779 0.00483894 0
1.14481 0.00745041 0
1.27804 0.00972862 0
1.37206 0.0111755 0
1.4338 0.0114795 0