# vtk DataFile Version 3.0
vtk output
ASCII
DATASET UNSTRUCTURED_GRID
POINTS 1913 double
0.045977 0 0
0.045977 0.0952381 0
0.045977 0.142857 0
0.045977 0.190476 0
0.045977 0.238095 0
0.045977 0.285714 0
0.045977 0.333333 0
0.045977 0.380952 0
0.045977 0.428571 0
0.045977 0.47619 0
0.045977 0.52381 0
0.045977 0.571429 0
0.045977 0.619048 0
0.045977 0.666667 0
0.045977 0.714286 0
0.045977 0.761905 0
0.045977 0.809524 0
0.045977 0.857143 0
0.045977 0.904762 0
0.045977 0.952381 0
0.045977 1 0
0.091954 0 0
0.091954 0.047619 0
0.091954 0.0952381 0
0.091954 0.142857 0
0.091954 0.190476 0
0.091954 0.238095 0
0.091954 0.285714 0
0.091954 0.333333 0
0.091954 0.380952 0
0.091954 0.428571 0
0.091954 0.47619 0
0.091954 0.52381 0
0.091954 0.571429 0
0.091954 0.619048 0
0.091954 0.666667 0
0.091954 0.714286 0
0.091954 0.761905 0
0.091954 0.809524 0
0.091954 0.857143 0
0.091954 0.904762 0
0.091954 0.952381 0
0.091954 1 0
0.137931 0 0
0.137931 0.047619 0
0.137931 0.0952381 0
0.137931 0.142857 0
0.137931 0.190476 0
0.137931 0.238095 0
0.137931 0.285714 0
0.137931 0.333333 0
0.137931 0.380952 0
0.137931 0.428571 0
0.137931 0.47619 0
0.137931 0.52381 0
0.137931 0.571429 0
0.137931 0.619048 0
0.137931 0.666667 0
0.137931 0.714286 0
0.137931 0.761905 0
0.137931 0.809524 0
0.137931 0.857143 0
0.137931 0.904762 0
0.137931 0.952381 0
0.137931 1 0
0.183908 0 0
0.183908 0.047619 0
0.183908 0.0952381 0
0.183908 0.142857 0
0.183908 0.190476 0
0.183908 0.238095 0
0.183908 0.285714 0
0.183908 0.333333 0
0.183908 0.380952 0
0.183908 0.428571 0
0.183908 0.47619 0
0.183908 0.52381 0
0.183908 0.571429 0
0.183908 0.619048 0
0.183908 0.666667 0
0.183908 0.714286 0
0.183908 0.761905 0
0.183908 0.809524 0
0.183908 0.857143 0
0.183908 0.904762 0
0.183908 0.952381 0
0.183908 1 0
0.229885 0 0
0.229885 0.047619 0
0.229885 0.0952381 0
0.229885 0.142857 0
0.229885 0.190476 0
0.229885 0.238095 0
0.229885 0.285714 0
0.229885 0.333333 0
0.229885 0.380952 0
0.229885 0.428571 0
0.229885 0.47619 0
0.229885 0.52381 0
0.229885 0.571429 0
0.229885 0.619048 0
0.229885 0.666667 0
0.229885 0.714286 0
0.229885 0.761905 0
0.229885 0.809524 0
0.229885 0.857143 0
0.229885 0.904762 0
0.229885 0.952381 0
0.229885 1 0
0.275862 0 0
0.275862 0.047619 0
0.275862 0.0952381 0
0.275862 0.142857 0
0.275862 0.190476 0
0.275862 0.238095 0
0.275862 0.285714 0
0.275862 0.333333 0
0.275862 0.380952 0
0.275862 0.428571 0
0.275862 0.47619 0
0.275862 0.52381 0
0.275862 0.571429 0
0.275862 0.619048 0
0.275862 0.666667 0
0.275862 0.714286 0
0.275862 0.761905 0
0.275862 0.809524 0
0.275862 0.857143 0
0.275862 0.904762 0
0.275862 0.952381 0
0.275862 1 0
0.321839 0 0
0.321839 0.047619 0
0.321839 0.0952381 0
0.321839 0.142857 0
0.321839 0.190476 0
0.321839 0.238095 0
0.321839 0.285714 0
0.321839 0.333333 0
0.321839 0.380952 0
0.321839 0.428571 0
0.321839 0.47619 0
0.321839 0.52381 0
0.321839 0.571429 0
0.321839 0.619048 0
0.321839 0.666667 0
0.321839 0.714286 0
0.321839 0.761905 0
0.321839 0.809524 0
0.321839 0.857143 0
0.321839 0.904762 0
0.321839 0.952381 0
0.321839 1 0
0.367816 0 0
0.367816 0.047619 0
0.367816 0.0952381 0
0.367816 0.142857 0
0.367816 0.190476 0
0.367816 0.238095 0
0.367816 0.285714 0
0.367816 0.333333 0
0.367816 0.380952 0
0.367816 0.428571 0
0.367816 0.47619 0
0.367816 0.52381 0
0.367816 0.571429 0
0.367816 0.619048 0
0.367816 0.666667 0
0.367816 0.714286 0
0.367816 0.761905 0
0.367816 0.809524 0
0.367816 0.857143 0
0.367816 0.904762 0
0.367816 0.952381 0
0.367816 1 0
0.413793 0 0
0.413793 0.047619 0
0.413793 0.0952381 0
0.413793 0.142857 0
0.413793 0.190476 0
0.413793 0.238095 0
0.413793 0.285714 0
0.413793 0.333333 0
0.413793 0.380952 0
0.413793 0.428571 0
0.413793 0.47619 0
0.413793 0.52381 0
0.413793 0.571429 0
0.413793 0.619048 0
0.413793 0.666667 0
0.413793 0.714286 0
0.413793 0.761905 0
0.413793 0.809524 0
0.413793 0.857143 0
0.413793 0.904762 0
0.413793 0.952381 0
0.413793 1 0
0.45977 0 0
0.45977 0.047619 0
0.45977 0.0952381 0
0.45977 0.142857 0
0.45977 0.190476 0
0.45977 0.238095 0
0.45977 0.285714 0
0.45977 0.333333 0
0.45977 0.380952 0
0.45977 0.428571 0
0.45977 0.47619 0
0.45977 0.52381 0
0.45977 0.571429 0
0.45977 0.619048 0
0.45977 0.666667 0
0.45977 0.714286 0
0.45977 0.761905 0
0.45977 0.809524 0
0.45977 0.857143 0
0.45977 0.904762 0
0.45977 0.952381 0
0.45977 1 0
0.505747 0 0
0.505747 0.047619 0
0.505747 0.0952381 0
0.505747 0.142857 0
0.505747 0.190476 0
0.505747 0.238095 0
0.505747 0.285714 0
0.505747 0.333333 0
0.505747 0.380952 0
0.505747 0.428571 0
0.505747 0.47619 0
0.505747 0.52381 0
0.505747 0.571429 0
0.505747 0.619048 0
0.505747 0.666667 0
0.505747 0.714286 0
0.505747 0.761905 0
0.505747 0.809524 0
0.505747 0.857143 0
0.505747 0.904762 0
0.505747 0.952381 0
0.505747 1 0
0.551724 0 0
0.551724 0.047619 0
0.551724 0.0952381 0
0.551724 0.142857 0
0.551724 0.190476 0
0.551724 0.238095 0
0.551724 0.285714 0
0.551724 0.333333 0
0.551724 0.380952 0
0.551724 0.428571 0
0.551724 0.47619 0
0.551724 0.52381 0
0.551724 0.571429 0
0.551724 0.619048 0
0.551724 0.666667 0
0.551724 0.714286 0
0.551724 0.761905 0
0.551724 0.809524 0
0.551724 0.857143 0
0.551724 0.904762 0
0.551724 0.952381 0
0.551724 1 0
0.597701 0 0
0.597701 0.047619 0
0.597701 0.0952381 0
0.597701 0.142857 0
0.597701 0.190476 0
0.597701 0.238095 0
0.597701 0.285714 0
0.597701 0.333333 0
0.597701 0.380952 0
0.597701 0.428571 0
0.597701 0.47619 0
0.597701 0.52381 0
0.597701 0.571429 0
0.597701 0.619048 0
0.597701 0.666667 0
0.597701 0.714286 0
0.597701 0.761905 0
0.597701 0.809524 0
0.597701 0.857143 0
0.597701 0.904762 0
0.597701 0.952381 0
0.597701 1 0
0.643678 0 0
0.643678 0.047619 0
0.643678 0.0952381 0
0.643678 0.142857 0
0.643678 0.190476 0
0.643678 0.238095 0
0.643678 0.285714 0
0.643678 0.333333 0
0.643678 0.380952 0
0.643678 0.428571 0
0.643678 0.47619 0
0.643678 0.52381 0
0.643678 0.571429 0
0.643678 0.619048 0
0.643678 0.666667 0
0.643678 0.714286 0
0.643678 0.761905 0
0.643678 0.809524 0
0.643678 0.857143 0
0.643678 0.904762 0
0.643678 0.952381 0
0.643678 1 0
0.689655 0 0
0.689655 0.047619 0
0.689655 0.0952381 0
0.689655 0.142857 0
0.689655 0.190476 0
0.689655 0.238095 0
0.689655 0.285714 0
0.689655 0.333333 0
0.689655 0.380952 0
0.689655 0.428571 0
0.689655 0.47619 0
0.689655 0.52381 0
0.689655 0.571429 0
0.689655 0.619048 0
0.689655 0.666667 0
0.689655 0.714286 0
0.689655 0.761905 0
0.689655 0.809524 0
0.689655 0.857143 0
0.689655 0.904762 0
0.689655 0.952381 0
0.689655 1 0
0.735632 0 0
0.735632 0.047619 0
0.735632 0.0952381 0
0.735632 0.142857 0
0.735632 0.190476 0
0.735632 0.238095 0
0.735632 0.285714 0
0.735632 0.333333 0
0.735632 0.380952 0
0.735632 0.428571 0
0.735632 0.47619 0
0.735632 0.52381 0
0.735632 0.571429 0
0.735632 0.619048 0
0.735632 0.666667 0
0.735632 0.714286 0
0.735632 0.761905 0
0.735632 0.809524 0
0.735632 0.857143 0
0.735632 0.904762 0
0.735632 0.952381 0
0.735632 1 0
0.781609 0 0
0.781609 0.047619 0
0.781609 0.0952381 0
0.781609 0.142857 0
0.781609 0.190476 0
0.781609 0.238095 0
0.781609 0.285714 0
0.781609 0.333333 0
0.781609 0.380952 0
0.781609 0.428571 0
0.781609 0.47619 0
0.781609 0.52381 0
0.781609 0.571429 0
0.781609 0.619048 0
0.781609 0.666667 0
0.781609 0.714286 0
0.781609 0.761905 0
0.781609 0.809524 0
0.781609 0.857143 0
0.781609 0.904762 0
0.781609 0.952381 0
0.781609 1 0
0.827586 0 0
0.827586 0.047619 0
0.827586 0.0952381 0
0.827586 0.142857 0
0.827586 0.190476 0
0.827586 0.238095 0
0.827586 0.285714 0
0.827586 0.333333 0
0.827586 0.380952 0
0.827586 0.428571 0
0.827586 0.47619 0
0.827586 0.52381 0
0.827586 0.571429 0
0.827586 0.619048 0
0.827586 0.666667 0
0.827586 0.714286 0
0.827586 0.761905 0
0.827586 0.809524 0
0.827586 0.857143 0
0.827586 0.904762 0
0.827586 0.952381 0
0.827586 1 0
0.873563 0 0
0.873563 0.047619 0
0.873563 0.0952381 0
0.873563 0.142857 0
0.873563 0.190476 0
0.873563 0.238095 0
0.873563 0.285714 0
0.873563 0.333333 0
0.873563 0.380952 0
0.873563 0.428571 0
0.873563 0.47619 0
0.873563 0.52381 0
0.873563 0.571429 0
0.873563 0.619048 0
0.873563 0.666667 0
0.873563 0.714286 0
0.873563 0.761905 0
0.873563 0.809524 0
0.873563 0.857143 0
0.873563 0.904762 0
0.873563 0.952381 0
0.873563 1 0
0.91954 0 0
0.91954 0.047619 0
0.91954 0.0952381 0
0.91954 0.142857 0
0.91954 0.190476 0
0.91954 0.238095 0
0.91954 0.285714 0
0.91954 0.333333 0
0.91954 0.380952 0
0.91954 0.428571 0
0.91954 0.47619 0
0.91954 0.52381 0
0.91954 0.571429 0
0.91954 0.619048 0
0.91954 0.666667 0
0.91954 0.714286 0
0.91954 0.761905 0
0.91954 0.809524 0
0.91954 0.857143 0
0.91954 0.904762 0
0.91954 0.952381 0
0.91954 1 0
0.965517 0 0
0.965517 0.047619 0
0.965517 0.0952381 0
0.965517 0.142857 0
0.965517 0.190476 0
0.965517 0.238095 0
0.965517 0.285714 0
0.965517 0.333333 0
0.965517 0.380952 0
0.965517 0.428571 0
0.965517 0.47619 0
0.965517 0.52381 0
0.965517 0.571429 0
0.965517 0.619048 0
0.965517 0.666667 0
0.965517 0.714286 0
0.965517 0.761905 0
0.965517 0.809524 0
0.965517 0.857143 0
0.965517 0.904762 0
0.965517 0.952381 0
0.965517 1 0
1.01149 0 0
1.01149 0.047619 0
1.01149 0.0952381 0
1.01149 0.142857 0
1.01149 0.190476 0
1.01149 0.238095 0
1.01149 0.285714 0
1.01149 0.333333 0
1.01149 0.380952 0
1.01149 0.428571 0
1.01149 0.47619 0
1.01149 0.52381 0
1.01149 0.571429 0
1.01149 0.619048 0
1.01149 0.666667 0
1.01149 0.714286 0
1.01149 0.761905 0
1.01149 0.809524 0
1.01149 0.857143 0
1.01149 0.904762 0
1.01149 0.952381 0
1.01149 1 0
1.05747 0 0
1.05747 0.047619 0
1.05747 0.0952381 0
1.05747 0.142857 0
1.05747 0.190476 0
1.05747 0.238095 0
1.05747 0.285714 0
1.05747 0.333333 0
1.05747 0.380952 0
1.05747 0.428571 0
1.05747 0.47619 0
1.05747 0.52381 0
1.05747 0.571429 0
1.05747 0.619048 0
1.05747 0.666667 0
1.05747 0.714286 0
1.05747 0.761905 0
1.05747 0.809524 0
1.05747 0.857143 0
1.05747 0.904762 0
1.05747 0.952381 0
1.05747 1 0
1.10345 0 0
1.10345 0.047619 0
1.10345 0.0952381 0
1.10345 0.142857 0
1.10345 0.190476 0
1.10345 0.238095 0
1.10345 0.285714 0
1.10345 0.333333 0
1.10345 0.380952 0
1.10345 0.428571 0
1.10345 0.47619 0
1.10345 0.52381 0
1.10345 0.571429 0
[...]
POINT_DATA 1913
VECTORS velocity[m/s] double
-0 0.209468 0
0 0.209468 0
0 0.209411 0
0 0.18101 0
0 0.150688 0
0 0.121938 0
0 0.0949246 0
0 0.0693089 0
0 0.0446732 0
0 0.020603 0
0 -0.00330158 0
0 -0.0274413 0
0 -0.0522442 0
0 -0.0782019 0
0 -0.105916 0
0 -0.136165 0
0 -0.169993 0
0 -0.208825 0
0 -0.254164 0
0 -0.302655 0
0 -0.309833 0
-0.872443 0.185238 0
0.872443 0.0016338 0
1.07474 0.185238 0
1.10211 0.208846 0
1.10396 0.184465 0
1.10245 0.153075 0
1.10077 0.123291 0
1.09942 0.0957232 0
1.09847 0.0697974 0
1.09793 0.0449514 0
1.09777 0.0207121 0
1.09799 -0.00334468 0
1.09863 -0.0276318 0
1.09975 -0.0525863 0
1.10144 -0.0787105 0
1.10389 -0.10663 0
1.10735 -0.137185 0
1.11218 -0.17156 0
1.11846 -0.211145 0
1.1215 -0.254973 0
1.08161 -0.28624 0
0.775535 -0.235201 0
-0.69517 0.14468 0
0.695171 0.00129612 0
1.05195 0.14468 0
1.12565 0.189923 0
1.13427 0.178704 0
1.1312 0.151267 0
1.12739 0.122328 0
1.12445 0.0950166 0
1.12246 0.069303 0
1.12133 0.0446747 0
1.12099 0.0206542 0
1.12144 -0.00317554 0
1.12273 -0.0272095 0
1.12497 -0.0518586 0
1.1284 -0.07759 0
1.13339 -0.104979 0
1.14054 -0.134767 0
1.1504 -0.167751 0
1.16078 -0.203582 0
1.15169 -0.235257 0
1.03234 -0.234712 0
0.548445 -0.146307 0
-0.556732 0.105545 0
0.556732 0.000944866 0
1.00827 0.105545 0
1.13648 0.16177 0
1.16076 0.164729 0
1.15914 0.144653 0
1.15376 0.118701 0
1.14928 0.0927238 0
1.14624 0.0678352 0
1.14452 0.0438637 0
1.144 0.0204348 0
1.14465 -0.00281425 0
1.14653 -0.0262278 0
1.14982 -0.0501578 0
1.15485 -0.0749921 0
1.16215 -0.101177 0
1.17238 -0.129161 0
1.18499 -0.158871 0
1.19136 -0.187461 0
1.15117 -0.203014 0
0.94698 -0.176769 0
0.407184 -0.0836766 0
-0.455739 0.0738507 0
0.455739 0.000660507 0
0.953981 0.0738507 0
1.13363 0.132259 0
1.18015 0.146302 0
1.1842 0.134362 0
1.17884 0.112732 0
1.17331 0.0889962 0
1.16939 0.0654938 0
1.16715 0.0425753 0
1.16645 0.0200668 0
1.16726 -0.00229498 0
1.16963 -0.0247766 0
1.1738 -0.0476469 0
1.18013 -0.0711842 0
1.18917 -0.0956497 0
1.20107 -0.121078 0
1.2126 -0.146372 0
1.20638 -0.16656 0
1.12583 -0.167833 0
0.857098 -0.128036 0
0.326393 -0.0478346 0
-0.385073 0.050491 0
0.385073 0.000451217 0
0.897587 0.050491 0
1.12007 0.105583 0
1.19168 0.126752 0
1.20509 0.122069 0
1.20176 0.105158 0
1.196 0.084196 0
1.19152 0.06248 0
1.18888 0.0409152 0
1.18804 0.0195806 0
1.18896 -0.00165781 0
1.19172 -0.0229734 0
1.19652 -0.0445409 0
1.20375 -0.0665166 0
1.21372 -0.0889549 0
1.22549 -0.111454 0
1.23209 -0.132001 0
1.20761 -0.144361 0
1.0874 -0.135424 0
0.779663 -0.0918051 0
0.280208 -0.0286705 0
-0.33676 0.0343608 0
0.33676 0.000306847 0
0.844395 0.0343608 0
1.09963 0.0833525 0
1.1962 0.108207 0
1.22142 0.109241 0
1.222 0.0967889 0
1.21697 0.0787636 0
1.21234 0.0590432 0
1.20948 0.0390149 0
1.20855 0.0190181 0
1.20954 -0.000942485 0
1.21254 -0.0209438 0
1.21774 -0.0410677 0
1.22542 -0.0613517 0
1.23545 -0.0816494 0
1.24533 -0.101163 0
1.24402 -0.11721 0
1.19898 -0.123142 0
1.04529 -0.108029 0
0.718706 -0.0662703 0
0.252526 -0.0183159 0
-0.30388 0.0237143 0
0.303881 0.000211625 0
0.797093 0.0237143 0
1.07563 0.0657148 0
1.1952 0.0917274 0
1.23344 0.0968803 0
1.2394 0.0882969 0
1.23601 0.073106 0
1.23168 0.0554253 0
1.22878 0.0370058 0
1.22782 0.0184232 0
1.22886 -0.000184564 0
1.23197 -0.0188047 0
1.23732 -0.0374359 0
1.24502 -0.0560098 0
1.25429 -0.0742007 0
1.26083 -0.0908881 0
1.24975 -0.102986 0
1.18439 -0.104071 0
1.00497 -0.0859165 0
0.672405 -0.0485848 0
0.234843 -0.0124169 0
-0.281189 0.0168617 0
0.281189 0.000150368 0
0.756542 0.0168617 0
1.05052 0.0521248 0
1.19023 0.0776539 0
1.24173 0.0855528 0
1.25407 0.0801474 0
1.25308 0.067539 0
1.24946 0.0518257 0
1.24673 0.0350001 0
1.24579 0.0178346 0
1.24683 0.000586333 0
1.24996 -0.0166542 0
1.25526 -0.0338164 0
1.26258 -0.0507417 0
1.2704 -0.0669536 0
1.27251 -0.0810908 0
1.2508 -0.0898947 0
1.16686 -0.0875637 0
0.968925 -0.0684983 0
0.637485 -0.0363122 0
0.222854 -0.00882831 0
-0.265054 0.0124698 0
0.265055 0.000111128 0
0.722495 0.0124698 0
1.02587 0.0418133 0
1.1826 0.0659212 0
1.24695 0.0754996 0
1.26624 0.0726129 0
1.26825 0.0622736 0
1.26571 0.0483871 0
1.2633 0.0330807 0
1.26244 0.0172812 0
1.26348 0.00134682 0
1.26653 -0.0145673 0
1.2716 -0.030335 0
1.27823 -0.0457236 0
1.28405 -0.0601341 0
1.28101 -0.0720411 0
1.24855 -0.0781934 0
1.14845 -0.0736096 0
0.937849 -0.0549415 0
0.610949 -0.0276956 0
0.214331 -0.00651411 0
-0.253122 0.0096116 0
0.253123 8.56056e-05 0
0.694163 0.00961158 0
1.00259 0.0340296 0
1.17335 0.0562737 0
1.24973 0.0667563 0
1.27623 0.0658184 0
1.28166 0.057429 0
1.28049 0.0451971 0
1.27856 0.0313005 0
1.27783 0.0167806 0
1.27885 0.00207922 0
1.28175 -0.012596 0
1.28646 -0.0270748 0
1.29215 -0.0410646 0
1.29555 -0.0538695 0
1.28695 -0.0638671 0
1.24412 -0.0679406 0
1.13043 -0.0619871 0
0.911543 -0.0444376 0
0.590499 -0.0215505 0
0.208042 -0.0049547 0
-0.243925 0.00769438 0
0.243926 6.84963e-05 0
0.670588 0.00769436 0
0.981115 0.0281403 0
1.16323 0.0483944 0
1.25064 0.0592456 0
1.28433 0.0597901 0
1.29347 0.0530543 0
1.2939 0.0422978 0
1.29258 0.0296861 0
1.29202 0.0163404 0
1.29302 0.00277078 0
1.29573 -0.0107722 0
1.29997 -0.0240832 0
1.30451 -0.0368205 0
1.3052 -0.0482143 0
1.29088 -0.0566002 0
1.23838 -0.0590786 0
1.11349 -0.0523943 0
0.889446 -0.0362991 0
0.574476 -0.0170952 0
0.203258 -0.00387043 0
-0.236563 0.00635876 0
0.236563 5.65844e-05 0
0.650847 0.00635874 0
0.96156 0.0236515 0
1.15276 0.0419721 0
1.25011 0.0528377 0
1.29083 0.0544948 0
1.30386 0.0491514 0
1.30608 0.0396986 0
1.30546 0.0282439 0
1.30512 0.0159604 0
1.30609 0.0034128 0
1.30859 -0.0091121 0
1.31227 -0.02138 0
1.31551 -0.0330081 0
1.3133 -0.0431729 0
1.29327 -0.0502114 0
1.23192 -0.0514889 0
1.09795 -0.044518 0
0.870905 -0.0299756 0
0.561707 -0.0138141 0
0.199522 -0.00309905 0
-0.230479 0.00539191 0
0.230479 4.7966e-05 0
0.634151 0.00539189 0
0.943871 0.0201934 0
1.14226 0.0367304 0
1.24851 0.047387 0
1.29599 0.049869 0
1.31299 0.0456939 0
1.31714 0.037387 0
1.31732 0.026967 0
1.31724 0.0156349 0
1.31819 0.0039999 0
1.32043 -0.00762013 0
1.32349 -0.0189652 0
1.32533 -0.0296181 0
1.32009 -0.0387183 0
1.29451 -0.0446379 0
1.22519 -0.0450279 0
1.0839 -0.0380666 0
0.855301 -0.0250401 0
0.551362 -0.0113631 0
0.19653 -0.00254037 0
-0.22532 0.00466752 0
0.22532 4.15118e-05 0
0.619861 0.00466749 0
0.927905 0.017496 0
1.13198 0.0324364 0
1.24612 0.0427512 0
1.30002 0.0458365 0
1.32101 0.0426403 0
1.3272 0.0353386 0
1.32826 0.0258402 0
1.32847 0.0153556 0
1.32941 0.00452931 0
1.33139 -0.00629254 0
1.33378 -0.0168262 0
1.33411 -0.026625 0
1.32581 -0.0348057 0
1.29489 -0.0398001 0
1.21847 -0.0395477 0
1.07133 -0.0327844 0
0.842096 -0.021166 0
0.542844 -0.00950824 0
0.194077 -0.00212961 0
-0.220854 0.00410879 0
0.220854 3.65355e-05 0
0.607475 0.00410877 0
0.91348 0.0153635 0
1.12202 0.0288995 0
1.24314 0.0388009 0
1.30311 0.0423199 0
1.32806 0.0399436 0
1.33637 0.033523 0
1.33839 0.0248445 0
1.33893 0.0151128 0
1.33985 0.00500038 0
1.34156 -0.0051204 0
1.34324 -0.0149427 0
1.34201 -0.0239945 0
1.33063 -0.0313816 0
1.29464 -0.0356134 0
1.21194 -0.0349073 0
1.06011 -0.0284541 0
0.83084 -0.0181054 0
0.53572 -0.0080876 0
0.192022 -0.00182347 0
-0.216923 0.00366724 0
0.216923 3.2604e-05 0
0.596609 0.00366721 0
0.900411 0.0136541 0
1.11246 0.0259665 0
1.23974 0.0354228 0
1.3054 0.0392459 0
1.33426 0.0375566 0
1.34475 0.0319088 0
1.34778 0.02396 0
1.34869 0.014897 0
1.34963 0.00541408 0
1.35104 -0.00409173 0
1.35198 -0.0132907 0
1.34914 -0.0216886 0
1.33472 -0.0283907 0
1.29396 -0.0319949 0
1.20571 -0.0309786 0
1.05012 -0.024895 0
0.821168 -0.0156703 0
0.529672 -0.00698703 0
0.190261 -0.00159229 0
-0.213414 0.00331089 0
0.213414 2.94319e-05 0
0.586966 0.00331086 0
0.888524 0.0122646 0
1.10333 0.0235154 0
1.23605 0.0325203 0
1.30703 0.0365486 0
1.33971 0.0354349 0
1.35243 0.0304659 0
1.35653 0.0231676 0
1.35785 0.0146998 0
1.35881 0.00577259 0
1.35992 -0.00319308 0
1.36009 -0.0118448 0
1.35562 -0.0196689 0
1.3382 -0.0257788 0
1.29298 -0.0288672 0
1.19984 -0.0276484 0
1.04121 -0.0219589 0
0.812785 -0.0137179 0
0.524464 -0.00612475 0
0.188724 -0.00141534 0
-0.210246 0.00301784 0
0.210247 2.68238e-05 0
0.578322 0.00301781 0
0.877661 0.0111194 0
1.09463 0.0214493 0
1.23216 0.0300121 0
1.30811 0.0341705 0
1.34451 0.0335392 0
1.35947 0.0291671 0
1.36471 0.0224502 0
1.36647 0.0145137 0
1.36746 0.00607897 0
1.36828 -0.00241065 0
1.36764 -0.01058 0
1.36152 -0.0178991 0
1.34118 -0.0234957 0
1.2918 -0.0261602 0
1.19435 -0.0248192 0
1.03326 -0.0195254 0
0.805454 -0.0121396 0
0.519917 -0.00544132 0
0.187358 -0.00127793 0
-0.207359 0.00277264 0
0.207359 2.4642e-05 0
0.5705 0.0027726 0
0.867688 0.0101625 0
1.08637 0.0196921 0
1.22815 0.0278308 0
1.30872 0.0320621 0
1.34873 0.0318348 0
1.36596 0.0279888 0
1.37237 0.0217932 0
1.37461 0.0143332 0
1.37566 0.0063369 0
1.37616 -0.00173093 0
1.37471 -0.00947294 0
1.36692 -0.0163454 0
1.34376 -0.0214959 0
1.29051 -0.0238118 0
1.18924 -0.0224074 0
1.02613 -0.017497 0
0.798987 -0.0108523 0
0.515898 -0.00489308 0
0.186125 -0.00116952 0
-0.204706 0.00256414 0
0.204707 2.27871e-05 0
0.563365 0.00256411 0
0.858487 0.00935231 0
1.07851 0.0181836 0
1.22406 0.0259208 0
1.30894 0.0301815 0
1.35244 0.0302925 0
1.37194 0.0269108 0
1.37958 0.0211841 0
1.38233 0.0141537 0
1.38345 0.0065504 0
1.38364 -0.0011412 0
1.38135 -0.00850216 0
1.37189 -0.0149775 0
1.34599 -0.0197388 0
1.28915 -0.0217681 0
1.18449 -0.0203429 0
1.01971 -0.0157955 0
0.793234 -0.00979226 0
0.512303 -0.00444763 0
0.184996 -0.00108247 0
-0.202253 0.00238421 0
0.202254 2.11866e-05 0
0.556812 0.00238417 0
0.849961 0.00865756 0
1.07104 0.0168763 0
1.21995 0.0242364 0
1.30883 0.0284936 0
1.35571 0.0288875 0
1.37747 0.0259165 0
1.38637 0.0206132 0
1.38967 0.0139723 0
1.39088 0.00672366 0
1.39075 -0.000629703 0
1.3876 -0.00764844 0
1.37649 -0.0137688 0
1.34795 -0.0181892 0
1.28778 -0.0199822 0
1.1801 -0.0185667 0
1.01391 -0.0143579 0
0.788074 -0.00891051 0
0.509054 -0.00408077 0
0.183951 -0.00101122 0
-0.199972 0.00222682 0
0.199973 1.97868e-05 0
0.550755 0.00222678 0
0.842026 0.0080546 0
1.06393 0.0157329 0
1.21584 0.0227404 0
1.30845 0.0269694 0
1.35858 0.0275995 0
1.38259 0.0249923 0
1.39278 0.0200726 0
1.39667 0.0137868 0
1.39798 0.00686092 0
1.39752 -0.000185811 0
1.39351 -0.00689481 0
1.38076 -0.0126959 0
1.34968 -0.0168165 0
1.28641 -0.0184146 0
1.17604 -0.0170298 0
1.00866 -0.0131337 0
0.783411 -0.00816912 0
0.506091 -0.0037743 0
0.182975 -0.000951694 0
-0.197842 0.00208747 0
0.197842 1.85476e-05 0
0.545129 0.00208743 0
0.834613 0.00752546 0
1.05717 0.0147239 0
1.21176 0.0214024 0
1.30784 0.0255845 0
1.3611 0.0264113 0
1.38734 0.0241272 0
1.39885 0.0195564 0
1.40336 0.0135963 0
1.40478 0.00696629 0
1.404 0.000199995 0
1.39911 -0.00622647 0
1.38474 -0.0117388 0
1.35123 -0.0155944 0
1.28507 -0.0170313 0
1.17228 -0.0156915 0
1.00386 -0.0120825 0
0.779168 -0.00753872 0
0.503366 -0.00351448 0
0.182057 -0.000900909 0
-0.195845 0.00196279 0
0.195845 1.7439e-05 0
0.539878 0.00196275 0
0.827663 0.00705634 0
1.05072 0.0138259 0
1.20772 0.0201976 0
1.30705 0.0243191 0
1.3633 0.0253092 0
1.39176 0.0233124 0
1.4046 0.01906 0
1.40976 0.0134003 0
1.41131 0.00704373 0
1.41021 0.00053613 0
1.40443 -0.00563062 0
1.38846 -0.01088 0
1.35261 -0.0145005 0
1.28378 -0.0158036 0
1.1688 -0.0145184 0
0.999476 -0.0111717 0
0.775283 -0.00699644 0
0.500843 -0.00329087 0
0.181187 -0.000856666 0
-0.193967 0.00185024 0
0.193968 1.64383e-05 0
0.534961 0.00185019 0
0.821127 0.00663663 0
1.04457 0.0130204 0
1.20374 0.0191059 0
1.30609 0.0231567 0
1.36523 0.0242818 0
1.39586 0.022541 0
1.41007 0.0185801 0
1.4159 0.013199 0
1.4176 0.00709694 0
1.41616 0.000829977 0
1.4095 -0.00509623 0
1.39196 -0.010105 0
1.35387 -0.0135157 0
1.28254 -0.0147076 0
1.16556 -0.0134825 0
0.995445 -0.0103754 0
0.771706 -0.00652445 0
0.498493 -0.00309555 0
0.180361 -0.000817347 0
-0.192197 0.00174784 0
0.192198 1.5528e-05 0
0.53034 0.00174779 0
0.814964 0.00625806 0
1.03869 0.0122926 0
1.19983 0.0181109 0
1.30501 0.0220835 0
1.36691 0.0233198 0
1.39969 0.0218074 0
1.41526 0.0181142 0
1.42179 0.0129928 0
1.42365 0.00712935 0
1.42188 0.00108796 0
1.41434 -0.00461393 0
1.39525 -0.00940116 0
1.35502 -0.0126238 0
1.28136 -0.0137229 0
1.16257 -0.0125611 0
0.991727 -0.00967265 0
0.768395 -0.00610882 0
0.496294 -0.00292242 0
0.179572 -0.000781758 0
-0.190525 0.00165408 0
0.190526 1.46946e-05 0
0.525986 0.00165404 0
0.809138 0.00591415 0
1.03308 0.0116308 0
1.19599 0.0171989 0
1.30381 0.0210883 0
1.36837 0.0224153 0
1.40325 0.0211073 0
1.42021 0.0176608 0
1.42745 0.0127824 0
1.42948 0.00714406 0
1.42739 0.00131561 0
1.41896 -0.00417572 0
1.39836 -0.00875793 0
1.35609 -0.0118111 0
1.28024 -0.0128326 0
1.15978 -0.0117353 0
0.988287 -0.00904665 0
0.765319 -0.00573856 0
0.494228 -0.00276685 0
0.178817 -0.000749015 0
-0.188943 0.00156778 0
0.188944 1.39275e-05 0
0.521873 0.00156773 0
0.803619 0.00559978 0
1.0277 0.0110255 0
1.19224 0.016359 0
1.30253 0.0201617 0
1.36963 0.0215621 0
1.40658 0.0204372 0
1.42492 0.0172185 0
1.4329 0.0125686 0
1.43511 0.00714382 0
1.43269 0.00151767 0
1.42338 -0.00377485 0
1.40131 -0.00816638 0
1.35707 -0.0110662 0
1.27918 -0.0120224 0
1.15718 -0.0109895 0
0.985093 -0.00848383 0
0.76245 -0.00540503 0
0.49228 -0.00262523 0
0.178095 -0.000718463 0
-0.187443 0.00148798 0
0.187444 1.32182e-05 0
0.51798 0.00148793 0
0.798381 0.00531083 0
1.02255 0.0104688 0
1.18857 0.0155819 0
1.30118 0.0192956 0
1.37072 0.0207548 0
1.40969 0.0197942 0
1.42941 0.0167866 0
1.43814 0.0123523 0
1.44054 0.00713106 0
1.4378 0.00169816 0
1.42763 -0.00340568 0
1.40411 -0.00761899 0
1.358 -0.0103793 0
1.27818 -0.0112802 0
1.15476 -0.0103108 0
0.982121 -0.00797322 0
0.759767 -0.00510139 0
0.490439 -0.00249477 0
0.177401 -0.00068961 0
-0.18602 0.00141392 0
0.186021 1.256e-05 0
0.514289 0.00141387 0
0.793401 0.00504397 0
1.01761 0.00995441 0
1.18498 0.0148598 0
1.29977 0.0184834 0
1.37165 0.0199888 0
1.41259 0.0191758 0
1.43369 0.0163644 0
1.44318 0.0121343 0
1.44579 0.00710782 0
1.44273 0.00186043 0
1.43169 -0.00306348 0
1.40678 -0.00710948 0
1.35887 -0.00974212 0
1.27725 -0.0105962 0
1.15251 -0.00968882 0
0.979348 -0.00750595 0
0.75725 -0.0048222 0
0.488697 -0.0023733 0
0.176736 -0.000662086 0
-0.184668 0.00134496 0
0.184668 1.19471e-05 0
0.510785 0.00134492 0
0.78866 0.00479646 0
1.01288 0.00947704 0
1.18148 0.0141864 0
1.29832 0.0177193 0
1.37243 0.0192601 0
1.41531 0.01858 0
1.43778 0.0159512 0
1.44803 0.011915 0
1.45086 0.00707583 0
1.44749 0.00200725 0
1.4356 -0.00274436 0
1.40932 -0.00663261 0
1.35969 -0.00914791 0
1.27637 -0.00996197 0
1.1504 -0.00911466 0
0.976758 -0.00707481 0
0.754886 -0.0045631 0
0.487045 -0.00225911 0
0.176097 -0.000635608 0
-0.183381 0.00128056 0
0.183382 1.13749e-05 0
0.507453 0.00128053 0
0.784141 0.00456602 0
1.00833 0.00903225 0
1.17807 0.0135559 0
1.29683 0.0169981 0
1.37309 0.0185652 0
1.41785 0.0180049 0
1.44167 0.0155466 0
1.4527 0.0116951 0
1.45575 0.00703642 0
1.45207 0.00214083 0
1.43936 -0.00244516 0
1.41175 -0.00618404 0
1.36048 -0.0085909 0
1.27555 -0.00937048 0
1.14843 -0.00858114 0
0.974333 -0.00667394 0
0.752662 -0.00432062 0
0.485478 -0.00215085 0
0.175484 -0.000609957 0
-0.182156 0.00122028 0
0.182157 1.08392e-05 0
0.504281 0.00122025 0
0.77983 0.0043507 0
1.00396 0.00861623 0
1.17475 0.0129636 0
1.29532 0.0163154 0
1.37363 0.0179008 0
1.42022 0.0174488 0
1.44539 0.01515 0
1.4572 0.0114747 0
1.46048 0.0069906 0
1.4565 0.00226288 0
1.44297 -0.00216334 0
1.41407 -0.00576023 0
1.36123 -0.00806632 0
1.27479 -0.00881594 0
1.14659 -0.0080823 0
0.972061 -0.00629857 0
0.750568 -0.00409197 0
0.48399 -0.00204747 0
0.174895 -0.000584962 0
-0.180989 0.00116371 0
0.18099 1.03365e-05 0
0.501259 0.00116368 0
0.775712 0.00414882 0
0.999768 0.00822568 0
1.17152 0.0124052 0
1.29379 0.0156672 0
1.37407 0.017264 0
1.42244 0.0169098 0
1.44894 0.0147605 0
1.46153 0.011254 0
1.46504 0.00693902 0
1.46078 0.00237467 0
1.44644 -0.00189697 0
1.4163 -0.00535833 0
1.36195 -0.00757025 0
1.27408 -0.00829355 0
1.14487 -0.00761325 0
0.969931 -0.00594484 0
0.748594 -0.00387491 0
0.482579 -0.00194811 0
0.174331 -0.00056049 0
-0.179876 0.00111049 0
0.179877 9.86365e-06 0
0.498377 0.00111047 0
0.771776 0.00395892 0
0.995733 0.0078577 0
1.16837 0.0118769 0
1.29225 0.0150497 0
1.37441 0.0166519 0
1.42452 0.0163862 0
1.45233 0.0143774 0
1.4657 0.0110326 0
1.46945 0.00688199 0
1.4649 0.00247701 0
1.44978 -0.0016446 0
1.41843 -0.00497612 0
1.36265 -0.00709951 0
1.27343 -0.00779936 0
1.14326 -0.00717 0
0.967933 -0.00560963 0
0.746734 -0.00366769 0
0.481239 -0.00185213 0
0.17379 -0.00053644 0
-0.178814 0.00106032 0
0.178815 9.41781e-06 0
0.495627 0.0010603 0
0.768012 0.00377968 0
0.991853 0.00750971 0
1.1653 0.0113752 0
1.2907 0.0144595 0
1.37467 0.0160618 0
1.42646 0.0158761 0
1.45556 0.0139995 0
1.46971 0.0108102 0
1.4737 0.00681952 0
1.46888 0.00257034 0
1.453 -0.00140526 0
1.42049 -0.00461188 0
1.36333 -0.00665156 0
1.27282 -0.00733017 0
1.14175 -0.00674934 0
0.966058 -0.00529046 0
0.744982 -0.00346893 0
0.47997 -0.00175903 0
0.173273 -0.000512735 0
-0.1778 0.00101289 0
0.177801 8.99639e-06 0
0.493002 0.00101287 0
0.764411 0.00360993 0
0.988121 0.00717936 0
1.16233 0.010897 0
1.28915 0.0138932 0
1.37485 0.0154908 0
1.42827 0.0153776 0
1.45864 0.0136256 0
1.47356 0.010586 0
1.47781 0.00675126 0
1.47272 0.00265471 0
1.45609 -0.0011784 0
1.42245 -0.00426443 0
1.36399 -0.00622444 0
1.27226 -0.00688344 0
1.14034 -0.0063487 0
0.9643 -0.00498539 0
0.743331 -0.00327756 0
0.478767 -0.00166846 0
0.172778 -0.000489325 0
-0.176831 0.000967936 0
0.176832 8.59704e-06 0
0.490495 0.000967932 0
0.760965 0.00344859 0
0.984532 0.00686447 0
1.15943 0.0104392 0
1.28761 0.0133478 0
1.37496 0.0149364 0
1.42996 0.0148886 0
1.46157 0.0132542 0
1.47726 0.010359 0
1.48176 0.00667659 0
1.47642 0.00272986 0
1.45908 -0.000963853 0
1.42435 -0.00393299 0
1.36462 -0.00581669 0
1.27174 -0.00645724 0
1.13903 -0.00596613 0
0.962652 -0.00469297 0
0.741778 -0.00309286 0
0.477629 -0.00158017 0
0.172306 -0.000466185 0
-0.175906 0.000925215 0
0.175907 8.21749e-06 0
0.4881 0.000925221 0
0.757667 0.00329462 0
0.981081 0.006563 0
1.15663 0.00999899 0
1.28608 0.0128201 0
1.37501 0.0143956 0
1.43154 0.0144068 0
1.46437 0.0128837 0
1.48082 0.0101279 0
1.48557 0.0065946 0
1.47999 0.00279519 0
1.46194 -0.000761798 0
1.42617 -0.00361718 0
1.36524 -0.00542733 0
1.27127 -0.00605012 0
1.1378 -0.00560015 0
0.961107 -0.00441216 0
0.740318 -0.00291431 0
0.476554 -0.00149405 0
0.171857 -0.000443312 0
-0.175021 0.000884479 0
0.175022 7.8556e-06 0
0.485813 0.000884497 0
0.754512 0.00314706 0
0.977764 0.00627301 0
1.1539 0.00957368 0
1.28456 0.0123071 0
1.37499 0.0138656 0
1.43301 0.01393 0
1.46703 0.0125122 0
1.48423 0.00989137 0
1.48924 0.0065041 0
1.48342 0.00284983 0
1.4647 -0.000572713 0
1.42792 -0.00331697 0
1.36584 -0.00505577 0
1.27084 -0.00566109 0
1.13665 -0.00524976 0
0.959661 -0.00414225 0
0.738947 -0.00274165 0
0.47554 -0.00141008 0
0.171429 -0.000420726 0
-0.174175 0.000845486 0
0.174176 7.50921e-06 0
0.483629 0.000845517 0
0.751494 0.00300496 0
0.974577 0.00599262 0
1.15126 0.00916057 0
1.28305 0.0118059 0
1.37493 0.0133437 0
1.43438 0.0134555 0
1.46956 0.0121377 0
1.4875 0.00964759 0
1.49277 0.0064037 0
1.48673 0.00289267 0
1.46735 -0.000397336 0
1.42959 -0.00303264 0
1.36643 -0.00470176 0
1.27044 -0.00528958 0
1.13558 -0.00491434 0
0.95831 -0.00388289 0
0.737662 -0.0025748 0
0.474585 -0.00132831 0
0.171023 -0.00039847 0
-0.173367 0.000807983 0
0.173368 7.17608e-06 0
0.481544 0.000808031 0
0.74861 0.00286736 0
0.971519 0.00571993 0
1.14871 0.00875701 0
1.28157 0.0113133 0
1.37483 0.0128267 0
1.43565 0.0129809 0
1.47196 0.0117579 0
1.49063 0.00939473 0
1.49616 0.00629182 0
1.48991 0.00292242 0
1.46989 -0.000236615 0
1.43121 -0.00276467 0
1.367 -0.00436536 0
1.27008 -0.0049353 0
1.13459 -0.00459358 0
0.957047 -0.00363394 0
0.736459 -0.00241384 0
0.473688 -0.00124888 0
0.170639 -0.000376601 0
-0.172594 0.000771703 0
0.172595 6.85382e-06 0
0.479557 0.00077177 0
0.745856 0.00273327 0
0.968587 0.00545309 0
1.14624 0.00836035 0
1.28011 0.0108264 0
1.37468 0.0123118 0
1.43683 0.0125034 0
1.47425 0.0113705 0