# vtk DataFile Version 3.0
vtk output
ASCII
DATASET UNSTRUCTURED_GRID
POINTS 1913 double
0.045977 0 0
0.045977 0.0952381 0
0.045977 0.142857 0
0.045977 0.190476 0
0.045977 0.238095 0
0.045977 0.285714 0
0.045977 0.333333 0
0.045977 0.380952 0
0.045977 0.428571 0
0.045977 0.47619 0
0.045977 0.52381 0
0.045977 0.571429 0
0.045977 0.619048 0
0.045977 0.666667 0
0.045977 0.714286 0
0.045977 0.761905 0
0.045977 0.809524 0
0.045977 0.857143 0
0.045977 0.904762 0
0.045977 0.952381 0
0.045977 1 0
0.091954 0 0
0.091954 0.047619 0
0.091954 0.0952381 0
0.091954 0.142857 0
0.091954 0.190476 0
0.091954 0.238095 0
0.091954 0.285714 0
0.091954 0.333333 0
0.091954 0.380952 0
0.091954 0.428571 0
0.091954 0.47619 0
0.091954 0.52381 0
0.091954 0.571429 0
0.091954 0.619048 0
0.091954 0.666667 0
0.091954 0.714286 0
0.091954 0.761905 0
0.091954 0.809524 0
0.091954 0.857143 0
0.091954 0.904762 0
0.091954 0.952381 0
0.091954 1 0
0.137931 0 0
0.137931 0.047619 0
0.137931 0.0952381 0
0.137931 0.142857 0
0.137931 0.190476 0
0.137931 0.238095 0
0.137931 0.285714 0
0.137931 0.333333 0
0.137931 0.380952 0
0.137931 0.428571 0
0.137931 0.47619 0
0.137931 0.52381 0
0.137931 0.571429 0
0.137931 0.619048 0
0.137931 0.666667 0
0.137931 0.714286 0
0.137931 0.761905 0
0.137931 0.809524 0
0.137931 0.857143 0
0.137931 0.904762 0
0.137931 0.952381 0
0.137931 1 0
0.183908 0 0
0.183908 0.047619 0
0.183908 0.0952381 0
0.183908 0.142857 0
0.183908 0.190476 0
0.183908 0.238095 0
0.183908 0.285714 0
0.183908 0.333333 0
0.183908 0.380952 0
0.183908 0.428571 0
0.183908 0.47619 0
0.183908 0.52381 0
0.183908 0.571429 0
0.183908 0.619048 0
0.183908 0.666667 0
0.183908 0.714286 0
0.183908 0.761905 0
0.183908 0.809524 0
0.183908 0.857143 0
0.183908 0.904762 0
0.183908 0.952381 0
0.183908 1 0
0.229885 0 0
0.229885 0.047619 0
0.229885 0.0952381 0
0.229885 0.142857 0
0.229885 0.190476 0
0.229885 0.238095 0
0.229885 0.285714 0
0.229885 0.333333 0
0.229885 0.380952 0
0.229885 0.428571 0
0.229885 0.47619 0
0.229885 0.52381 0
0.229885 0.571429 0
0.229885 0.619048 0
0.229885 0.666667 0
0.229885 0.714286 0
0.229885 0.761905 0
0.229885 0.809524 0
0.229885 0.857143 0
0.229885 0.904762 0
0.229885 0.952381 0
0.229885 1 0
0.275862 0 0
0.275862 0.047619 0
0.275862 0.0952381 0
0.275862 0.142857 0
0.275862 0.190476 0
0.275862 0.238095 0
0.275862 0.285714 0
0.275862 0.333333 0
0.275862 0.380952 0
0.275862 0.428571 0
0.275862 0.47619 0
0.275862 0.52381 0
0.275862 0.571429 0
0.275862 0.619048 0
0.275862 0.666667 0
0.275862 0.714286 0
0.275862 0.761905 0
0.275862 0.809524 0
0.275862 0.857143 0
0.275862 0.904762 0
0.275862 0.952381 0
0.275862 1 0
0.321839 0 0
0.321839 0.047619 0
0.321839 0.0952381 0
0.321839 0.142857 0
0.321839 0.190476 0
0.321839 0.238095 0
0.321839 0.285714 0
0.321839 0.333333 0
0.321839 0.380952 0
0.321839 0.428571 0
0.321839 0.47619 0
0.321839 0.52381 0
0.321839 0.571429 0
0.321839 0.619048 0
0.321839 0.666667 0
0.321839 0.714286 0
0.321839 0.761905 0
0.321839 0.809524 0
0.321839 0.857143 0
0.321839 0.904762 0
0.321839 0.952381 0
0.321839 1 0
0.367816 0 0
0.367816 0.047619 0
0.367816 0.0952381 0
0.367816 0.142857 0
0.367816 0.190476 0
0.367816 0.238095 0
0.367816 0.285714 0
0.367816 0.333333 0
0.367816 0.380952 0
0.367816 0.428571 0
0.367816 0.47619 0
0.367816 0.52381 0
0.367816 0.571429 0
0.367816 0.619048 0
0.367816 0.666667 0
0.367816 0.714286 0
0.367816 0.761905 0
0.367816 0.809524 0
0.367816 0.857143 0
0.367816 0.904762 0
0.367816 0.952381 0
0.367816 1 0
0.413793 0 0
0.413793 0.047619 0
0.413793 0.0952381 0
0.413793 0.142857 0
0.413793 0.190476 0
0.413793 0.238095 0
0.413793 0.285714 0
0.413793 0.333333 0
0.413793 0.380952 0
0.413793 0.428571 0
0.413793 0.47619 0
0.413793 0.52381 0
0.413793 0.571429 0
0.413793 0.619048 0
0.413793 0.666667 0
0.413793 0.714286 0
0.413793 0.761905 0
0.413793 0.809524 0
0.413793 0.857143 0
0.413793 0.904762 0
0.413793 0.952381 0
0.413793 1 0
0.45977 0 0
0.45977 0.047619 0
0.45977 0.0952381 0
0.45977 0.142857 0
0.45977 0.190476 0
0.45977 0.238095 0
0.45977 0.285714 0
0.45977 0.333333 0
0.45977 0.380952 0
0.45977 0.428571 0
0.45977 0.47619 0
0.45977 0.52381 0
0.45977 0.571429 0
0.45977 0.619048 0
0.45977 0.666667 0
0.45977 0.714286 0
0.45977 0.761905 0
0.45977 0.809524 0
0.45977 0.857143 0
0.45977 0.904762 0
0.45977 0.952381 0
0.45977 1 0
0.505747 0 0
0.505747 0.047619 0
0.505747 0.0952381 0
0.505747 0.142857 0
0.505747 0.190476 0
0.505747 0.238095 0
0.505747 0.285714 0
0.505747 0.333333 0
0.505747 0.380952 0
0.505747 0.428571 0
0.505747 0.47619 0
0.505747 0.52381 0
0.505747 0.571429 0
0.505747 0.619048 0
0.505747 0.666667 0
0.505747 0.714286 0
0.505747 0.761905 0
0.505747 0.809524 0
0.505747 0.857143 0
0.505747 0.904762 0
0.505747 0.952381 0
0.505747 1 0
0.551724 0 0
0.551724 0.047619 0
0.551724 0.0952381 0
0.551724 0.142857 0
0.551724 0.190476 0
0.551724 0.238095 0
0.551724 0.285714 0
0.551724 0.333333 0
0.551724 0.380952 0
0.551724 0.428571 0
0.551724 0.47619 0
0.551724 0.52381 0
0.551724 0.571429 0
0.551724 0.619048 0
0.551724 0.666667 0
0.551724 0.714286 0
0.551724 0.761905 0
0.551724 0.809524 0
0.551724 0.857143 0
0.551724 0.904762 0
0.551724 0.952381 0
0.551724 1 0
0.597701 0 0
0.597701 0.047619 0
0.597701 0.0952381 0
0.597701 0.142857 0
0.597701 0.190476 0
0.597701 0.238095 0
0.597701 0.285714 0
0.597701 0.333333 0
0.597701 0.380952 0
0.597701 0.428571 0
0.597701 0.47619 0
0.597701 0.52381 0
0.597701 0.571429 0
0.597701 0.619048 0
0.597701 0.666667 0
0.597701 0.714286 0
0.597701 0.761905 0
0.597701 0.809524 0
0.597701 0.857143 0
0.597701 0.904762 0
0.597701 0.952381 0
0.597701 1 0
0.643678 0 0
0.643678 0.047619 0
0.643678 0.0952381 0
0.643678 0.142857 0
0.643678 0.190476 0
0.643678 0.238095 0
0.643678 0.285714 0
0.643678 0.333333 0
0.643678 0.380952 0
0.643678 0.428571 0
0.643678 0.47619 0
0.643678 0.52381 0
0.643678 0.571429 0
0.643678 0.619048 0
0.643678 0.666667 0
0.643678 0.714286 0
0.643678 0.761905 0
0.643678 0.809524 0
0.643678 0.857143 0
0.643678 0.904762 0
0.643678 0.952381 0
0.643678 1 0
0.689655 0 0
0.689655 0.047619 0
0.689655 0.0952381 0
0.689655 0.142857 0
0.689655 0.190476 0
0.689655 0.238095 0
0.689655 0.285714 0
0.689655 0.333333 0
0.689655 0.380952 0
0.689655 0.428571 0
0.689655 0.47619 0
0.689655 0.52381 0
0.689655 0.571429 0
0.689655 0.619048 0
0.689655 0.666667 0
0.689655 0.714286 0
0.689655 0.761905 0
0.689655 0.809524 0
0.689655 0.857143 0
0.689655 0.904762 0
0.689655 0.952381 0
0.689655 1 0
0.735632 0 0
0.735632 0.047619 0
0.735632 0.0952381 0
0.735632 0.142857 0
0.735632 0.190476 0
0.735632 0.238095 0
0.735632 0.285714 0
0.735632 0.333333 0
0.735632 0.380952 0
0.735632 0.428571 0
0.735632 0.47619 0
0.735632 0.52381 0
0.735632 0.571429 0
0.735632 0.619048 0
0.735632 0.666667 0
0.735632 0.714286 0
0.735632 0.761905 0
0.735632 0.809524 0
0.735632 0.857143 0
0.735632 0.904762 0
0.735632 0.952381 0
0.735632 1 0
0.781609 0 0
0.781609 0.047619 0
0.781609 0.0952381 0
0.781609 0.142857 0
0.781609 0.190476 0
0.781609 0.238095 0
0.781609 0.285714 0
0.781609 0.333333 0
0.781609 0.380952 0
0.781609 0.428571 0
0.781609 0.47619 0
0.781609 0.52381 0
0.781609 0.571429 0
0.781609 0.619048 0
0.781609 0.666667 0
0.781609 0.714286 0
0.781609 0.761905 0
0.781609 0.809524 0
0.781609 0.857143 0
0.781609 0.904762 0
0.781609 0.952381 0
0.781609 1 0
0.827586 0 0
0.827586 0.047619 0
0.827586 0.0952381 0
0.827586 0.142857 0
0.827586 0.190476 0
0.827586 0.238095 0
0.827586 0.285714 0
0.827586 0.333333 0
0.827586 0.380952 0
0.827586 0.428571 0
0.827586 0.47619 0
0.827586 0.52381 0
0.827586 0.571429 0
0.827586 0.619048 0
0.827586 0.666667 0
0.827586 0.714286 0
0.827586 0.761905 0
0.827586 0.809524 0
0.827586 0.857143 0
0.827586 0.904762 0
0.827586 0.952381 0
0.827586 1 0
0.873563 0 0
0.873563 0.047619 0
0.873563 0.0952381 0
0.873563 0.142857 0
0.873563 0.190476 0
0.873563 0.238095 0
0.873563 0.285714 0
0.873563 0.333333 0
0.873563 0.380952 0
0.873563 0.428571 0
0.873563 0.47619 0
0.873563 0.52381 0
0.873563 0.571429 0
0.873563 0.619048 0
0.873563 0.666667 0
0.873563 0.714286 0
0.873563 0.761905 0
0.873563 0.809524 0
0.873563 0.857143 0
0.873563 0.904762 0
0.873563 0.952381 0
0.873563 1 0
0.91954 0 0
0.91954 0.047619 0
0.91954 0.0952381 0
0.91954 0.142857 0
0.91954 0.190476 0
0.91954 0.238095 0
0.91954 0.285714 0
0.91954 0.333333 0
0.91954 0.380952 0
0.91954 0.428571 0
0.91954 0.47619 0
0.91954 0.52381 0
0.91954 0.571429 0
0.91954 0.619048 0
0.91954 0.666667 0
0.91954 0.714286 0
0.91954 0.761905 0
0.91954 0.809524 0
0.91954 0.857143 0
0.91954 0.904762 0
0.91954 0.952381 0
0.91954 1 0
0.965517 0 0
0.965517 0.047619 0
0.965517 0.0952381 0
0.965517 0.142857 0
0.965517 0.190476 0
0.965517 0.238095 0
0.965517 0.285714 0
0.965517 0.333333 0
0.965517 0.380952 0
0.965517 0.428571 0
0.965517 0.47619 0
0.965517 0.52381 0
0.965517 0.571429 0
0.965517 0.619048 0
0.965517 0.666667 0
0.965517 0.714286 0
0.965517 0.761905 0
0.965517 0.809524 0
0.965517 0.857143 0
0.965517 0.904762 0
0.965517 0.952381 0
0.965517 1 0
1.01149 0 0
1.01149 0.047619 0
1.01149 0.0952381 0
1.01149 0.142857 0
1.01149 0.190476 0
1.01149 0.238095 0
1.01149 0.285714 0
1.01149 0.333333 0
1.01149 0.380952 0
1.01149 0.428571 0
1.01149 0.47619 0
1.01149 0.52381 0
1.01149 0.571429 0
1.01149 0.619048 0
1.01149 0.666667 0
1.01149 0.714286 0
1.01149 0.761905 0
1.01149 0.809524 0
1.01149 0.857143 0
1.01149 0.904762 0
1.01149 0.952381 0
1.01149 1 0
1.05747 0 0
1.05747 0.047619 0
1.05747 0.0952381 0
1.05747 0.142857 0
1.05747 0.190476 0
1.05747 0.238095 0
1.05747 0.285714 0
1.05747 0.333333 0
1.05747 0.380952 0
1.05747 0.428571 0
1.05747 0.47619 0
1.05747 0.52381 0
1.05747 0.571429 0
1.05747 0.619048 0
1.05747 0.666667 0
1.05747 0.714286 0
1.05747 0.761905 0
1.05747 0.809524 0
1.05747 0.857143 0
1.05747 0.904762 0
1.05747 0.952381 0
1.05747 1 0
1.10345 0 0
1.10345 0.047619 0
1.10345 0.0952381 0
1.10345 0.142857 0
1.10345 0.190476 0
1.10345 0.238095 0
1.10345 0.285714 0
1.10345 0.333333 0
1.10345 0.380952 0
1.10345 0.428571 0
1.10345 0.47619 0
1.10345 0.52381 0
1.10345 0.571429 0
[...]
POINT_DATA 1913
VECTORS velocity[m/s] double
-0 0.0678325 0
0 0.0696353 0
0 0.0470331 0
0 0.0311968 0
0 0.021833 0
0 0.015787 0
0 0.0115058 0
0 0.0082315 0
0 0.00555569 0
0 0.00323297 0
0 0.00109762 0
0 -0.000979075 0
0 -0.00311516 0
0 -0.00544012 0
0 -0.00812177 0
0 -0.0114102 0
0 -0.0157251 0
0 -0.0218525 0
0 -0.031427 0
0 -0.0478883 0
0 -0.0723329 0
-0.659931 0.0354835 0
0.665734 0.000312965 0
0.756656 0.0366834 0
0.751577 0.0333132 0
0.746352 0.0257896 0
0.743889 0.0195342 0
0.742733 0.0147381 0
0.742166 0.011006 0
0.741883 0.00798968 0
0.741742 0.00544055 0
0.741678 0.00318242 0
0.741661 0.0010835 0
0.741682 -0.000964841 0
0.741751 -0.00306416 0
0.741898 -0.00532351 0
0.742192 -0.00787569 0
0.742778 -0.0108986 0
0.743977 -0.0146433 0
0.746555 -0.0194586 0
0.752155 -0.0257258 0
0.758341 -0.0331677 0
0.662869 -0.0359663 0
-0.62598 0.0164443 0
0.630635 0.000148634 0
0.759922 0.0170354 0
0.758854 0.0205992 0
0.752403 0.0188686 0
0.748531 0.0157794 0
0.746348 0.0126417 0
0.745091 0.0098008 0
0.744356 0.00728635 0
0.743934 0.00503731 0
0.743717 0.00297449 0
0.743651 0.00102043 0
0.743721 -0.000897816 0
0.743944 -0.00285131 0
0.744374 -0.00491294 0
0.745123 -0.00715982 0
0.746405 -0.00966996 0
0.748638 -0.0125003 0
0.752618 -0.015609 0
0.759352 -0.0186146 0
0.761055 -0.0201108 0
0.628155 -0.0160282 0
-0.610265 0.00811399 0
0.614355 7.32475e-05 0
0.756498 0.0083956 0
0.760542 0.0125428 0
0.755403 0.0131679 0
0.751578 0.0120511 0
0.749108 0.0102568 0
0.747535 0.00828346 0
0.746544 0.00633024 0
0.745942 0.00445706 0
0.74562 0.0026633 0
0.745519 0.00092351 0
0.745624 -0.000797048 0
0.745951 -0.00253535 0
0.74656 -0.00432574 0
0.747563 -0.00619264 0
0.749154 -0.00813426 0
0.751656 -0.0100854 0
0.755536 -0.0118355 0
0.760813 -0.0128644 0
0.757129 -0.0120754 0
0.612695 -0.00773088 0
-0.60253 0.0044634 0
0.60635 4.01899e-05 0
0.752515 0.00460986 0
0.759959 0.00785308 0
0.756502 0.00909522 0
0.753331 0.00895274 0
0.751034 0.00803736 0
0.749442 0.00674628 0
0.748373 0.00529876 0
0.747695 0.00380225 0
0.74732 0.00230149 0
0.747201 0.000808559 0
0.747323 -0.000679658 0
0.747701 -0.00217054 0
0.748383 -0.00366673 0
0.749458 -0.00515506 0
0.751059 -0.00658863 0
0.753366 -0.00785618 0
0.75655 -0.00873247 0
0.760072 -0.00881324 0
0.752955 -0.00748764 0
0.605252 -0.00420082 0
-0.598295 0.00269702 0
0.601975 2.42373e-05 0
0.749409 0.00278182 0
0.758785 0.00510378 0
0.756665 0.00631956 0
0.75424 0.00657516 0
0.752306 0.00616802 0
0.750864 0.00535479 0
0.749843 0.00431282 0
0.749169 0.00315131 0
0.748787 0.00193231 0
0.748663 0.000689161 0
0.748787 -0.000559815 0
0.74917 -0.00180079 0
0.749845 -0.00301506 0
0.750867 -0.0041685 0
0.752307 -0.00519771 0
0.754237 -0.00599167 0
0.756653 -0.00637127 0
0.758817 -0.00608042 0
0.749806 -0.00483075 0
0.60122 -0.00251862 0
-0.595755 0.00174316 0
0.599355 1.56451e-05 0
0.747197 0.00179654 0
0.757641 0.0034325 0
0.756447 0.00444303 0
0.754662 0.00481553 0
0.753119 0.00467719 0
0.751899 0.00417647 0
0.750993 0.00343825 0
0.750375 0.00255388 0
0.750015 0.00158559 0
0.749897 0.000575137 0
0.750014 -0.000447481 0
0.750371 -0.00145598 0
0.750987 -0.00242013 0
0.751889 -0.00329779 0
0.753102 -0.00402616 0
0.754632 -0.00451351 0
0.7564 -0.00463547 0
0.757638 -0.00424648 0
0.747602 -0.00322766 0
0.598817 -0.00161657 0
-0.594135 0.00118007 0
0.597684 1.05826e-05 0
0.74565 0.00121564 0
0.756697 0.00237376 0
0.75612 0.00316385 0
0.754828 0.00353216 0
0.753635 0.00352407 0
0.752644 0.00321946 0
0.751879 0.00269986 0
0.751341 0.00203461 0
0.751023 0.00127812 0
0.750916 0.000472393 0
0.751019 -0.000348365 0
0.751333 -0.00115255 0
0.751866 -0.00190589 0
0.752624 -0.00256628 0
0.753604 -0.00307933 0
0.754781 -0.00337606 0
0.756056 -0.00337625 0
0.756686 -0.00300302 0
0.746078 -0.0022167 0
0.597287 -0.00108541 0
-0.593057 0.00082528 0
0.596573 7.39675e-06 0
0.744567 0.000849884 0
0.75597 0.00167769 0
0.7558 0.00227957 0
0.754871 0.00259965 0
0.753965 0.00264726 0
0.753181 0.00246277 0
0.752557 0.00209714 0
0.752107 0.00160032 0
0.751836 0.00101648 0
0.751744 0.000383601 0
0.75183 -0.000264751 0
0.752096 -0.000896579 0
0.752538 -0.00147835 0
0.753154 -0.00197218 0
0.753925 -0.0023342 0
0.754816 -0.00251511 0
0.755731 -0.00246536 0
0.755962 -0.00214688 0
0.745021 -0.00155394 0
0.596274 -0.0007508 0
-0.592324 0.000591079 0
0.595816 5.29558e-06 0
0.743807 0.000608555 0
0.755428 0.0012059 0
0.755529 0.00165918 0
0.754863 0.00192112 0
0.754181 0.00198669 0
0.753572 0.00187485 0
0.753074 0.00161665 0
0.752708 0.00124705 0
0.752485 0.000800483 0
0.752408 0.000309173 0
0.752478 -0.000196596 0
0.752695 -0.000687323 0
0.753053 -0.00113281 0
0.753541 -0.00150101 0
0.754137 -0.00175792 0
0.754805 -0.00186925 0
0.755461 -0.00180511 0
0.755427 -0.00154818 0
0.744282 -0.00110562 0
0.595587 -0.000529767 0
-0.591818 0.00043123 0
0.595294 3.86232e-06 0
0.743271 0.000443886 0
0.755031 0.000878339 0
0.755317 0.00121804 0
0.754841 0.00142559 0
0.754329 0.00149138 0
0.753861 0.00142326 0
0.753471 0.0012399 0
0.75318 0.00096547 0
0.752999 0.000626122 0
0.752936 0.000248164 0
0.752992 -0.000142519 0
0.753165 -0.000520288 0
0.753448 -0.000859357 0
0.753829 -0.00113364 0
0.754285 -0.00131737 0
0.754783 -0.00138699 0
0.755252 -0.0013247 0
0.755039 -0.00112371 0
0.743766 -0.000794897 0
0.595115 -0.000378799 0
-0.591469 0.000319433 0
0.594933 2.86032e-06 0
0.742894 0.000328738 0
0.754745 0.00064665 0
0.755159 0.000900737 0
0.75482 0.00106216 0
0.754437 0.00112078 0
0.754081 0.001079 0
0.753778 0.000947961 0
0.753549 0.000744323 0
0.753406 0.000487685 0
0.753355 0.000198954 0
0.753398 -0.000100532 0
0.753534 -0.000389377 0
0.753755 -0.000646338 0
0.754048 -0.000850717 0
0.754394 -0.000983243 0
0.754765 -0.00102774 0
0.7551 -0.000973661 0
0.754763 -0.000819319 0
0.743406 -0.00057554 0
0.594791 -0.000273198 0
-0.591229 0.000239797 0
0.594684 2.14679e-06 0
0.742632 0.000246726 0
0.754544 0.000480389 0
0.755047 0.000670346 0
0.754807 0.000794468 0
0.754522 0.000843685 0
0.754251 0.000817843 0
0.754019 0.000723613 0
0.753841 0.000572504 0
0.753728 0.000379098 0
0.753688 0.000159711 0
0.753721 -6.85169e-05 0
0.753826 -0.000288232 0
0.753995 -0.000482377 0
0.754219 -0.000634806 0
0.75448 -0.000731201 0
0.754756 -0.000760404 0
0.754994 -0.000716158 0
0.754571 -0.000599043 0
0.743158 -0.000418514 0
0.59457 -0.00019804 0
-0.591067 0.000182259 0
0.594516 1.63137e-06 0
0.742452 0.000187478 0
0.754407 0.000359727 0
0.754973 0.000501759 0
0.754805 0.00059653 0
0.754592 0.000636454 0
0.754387 0.000620342 0
0.75421 0.000552203 0
0.754072 0.000440041 0
0.753985 0.000294665 0
0.753953 0.000128652 0
0.753978 -4.44869e-05 0
0.754058 -0.000210966 0
0.754187 -0.000357339 0
0.754357 -0.000471163 0
0.754553 -0.000541824 0
0.754758 -0.000561562 0
0.754926 -0.000526643 0
0.754442 -0.000438502 0
0.742989 -0.000304927 0
0.594424 -0.000143861 0
-0.590961 0.000140202 0
0.594405 1.2547e-06 0
0.742332 0.000144176 0
0.754316 0.000271359 0
0.754928 0.000377604 0
0.754812 0.000449649 0
0.754653 0.00048136 0
0.754499 0.000471252 0
0.754364 0.000421749 0
0.754258 0.000338468 0
0.754191 0.000229409 0
0.754166 0.00010418 0
0.754184 -2.67121e-05 0
0.754245 -0.000152484 0
0.754343 -0.000262678 0
0.75447 -0.000347785 0
0.754617 -0.00039994 0
0.754769 -0.000413695 0
0.754886 -0.000386792 0
0.754358 -0.000320856 0
0.742879 -0.00022211 0
0.59433 -0.000104423 0
-0.590897 0.000109148 0
0.594337 9.76623e-07 0
0.742256 0.000112207 0
0.75426 0.000206151 0
0.754905 0.00028567 0
0.754828 0.000340298 0
0.754709 0.000365156 0
0.754593 0.000358799 0
0.75449 0.000322708 0
0.75441 0.000260857 0
0.754358 0.000179169 0
0.754338 8.4936e-05 0
0.754351 -1.37541e-05 0
0.754397 -0.000108563 0
0.754471 -0.000191437 0
0.754567 -0.000255152 0
0.754677 -0.000293878 0
0.754789 -0.000303747 0
0.754868 -0.000283377 0
0.754309 -0.000234282 0
0.742811 -0.000161361 0
0.594275 -7.54977e-05 0
-0.590862 8.60015e-05 0
0.5943 7.6938e-07 0
0.742213 8.83818e-05 0
0.75423 0.000157709 0
0.754899 0.000217265 0
0.754851 0.000258633 0
0.754762 0.000277965 0
0.754674 0.000273985 0
0.754597 0.000247611 0
0.754535 0.000201676 0
0.754495 0.00014057 0
0.75448 6.97993e-05 0
0.754489 -4.45561e-06 0
0.754523 -7.58018e-05 0
0.754579 -0.000138085 0
0.75465 -0.000185839 0
0.754732 -0.000214737 0
0.754816 -0.000222006 0
0.754867 -0.000206784 0
0.754284 -0.000170368 0
0.742775 -0.00011659 0
0.594249 -5.41493e-05 0
-0.59085 6.85815e-05 0
0.594285 6.13434e-07 0
0.742193 7.0455e-05 0
0.75422 0.000121494 0
0.754906 0.000166133 0
0.754879 0.000197454 0
0.754813 0.000212424 0
0.754746 0.000209976 0
0.754688 0.000190682 0
0.754641 0.000156582 0
0.75461 0.000110928 0
0.754598 5.78672e-05 0
0.754605 2.09375e-06 0
0.75463 -5.15223e-05 0
0.754671 -9.83031e-05 0
0.754724 -0.000134127 0
0.754785 -0.000155777 0
0.754847 -0.000161248 0
0.754878 -0.00014999 0
0.754279 -0.000123065 0
0.74276 -8.34674e-05 0
0.594242 -3.83064e-05 0
-0.590854 5.5334e-05 0
0.594287 4.94859e-07 0
0.74219 5.68264e-05 0
0.754223 9.42441e-05 0
0.754922 0.000127734 0
0.754911 0.000151469 0
0.754861 0.000163047 0
0.754811 0.000161603 0
0.754767 0.000147498 0
0.754731 0.000122208 0
0.754707 8.81443e-05 0
0.754698 4.84247e-05 0
0.754702 6.59784e-06 0
0.754721 -3.3644e-05 0
0.754751 -6.87601e-05 0
0.754791 -9.56493e-05 0
0.754837 -0.000111916 0
0.754882 -0.0001161 0
0.754898 -0.000107841 0
0.754286 -8.79856e-05 0
0.742763 -5.88836e-05 0
0.594251 -2.64879e-05 0
-0.590869 4.51404e-05 0
0.594301 4.03634e-07 0
0.7422 4.63441e-05 0
0.754237 7.35975e-05 0
0.754945 9.8754e-05 0
0.754945 0.000116776 0
0.754908 0.000125746 0
0.75487 0.000124973 0
0.754836 0.000114688 0
0.754809 9.59643e-05 0
0.754791 7.05931e-05 0
0.754783 4.09111e-05 0
0.754786 9.59381e-06 0
0.7548 -2.05699e-05 0
0.754823 -4.69085e-05 0
0.754852 -6.70918e-05 0
0.754886 -7.93347e-05 0
0.75492 -8.25652e-05 0
0.754924 -7.65421e-05 0
0.754303 -6.19279e-05 0
0.742777 -4.05832e-05 0
0.594271 -1.76244e-05 0
-0.590894 3.71897e-05 0
0.594324 3.32496e-07 0
0.742219 3.81731e-05 0
0.754257 5.78303e-05 0
0.754972 7.67587e-05 0
0.754982 9.04882e-05 0
0.754954 9.74699e-05 0
0.754925 9.71566e-05 0
0.754899 8.96976e-05 0
0.754878 7.58768e-05 0
0.754864 5.70246e-05 0
0.754858 3.48907e-05 0
0.75486 1.14874e-05 0
0.75487 -1.10847e-05 0
0.754887 -3.08143e-05 0
0.754908 -4.59527e-05 0
0.754933 -5.51677e-05 0
0.754958 -5.76685e-05 0
0.754954 -5.32889e-05 0
0.754327 -4.25425e-05 0
0.742799 -2.69201e-05 0
0.594298 -1.09378e-05 0
-0.590924 3.0891e-05 0
0.594353 2.76152e-07 0
0.742244 3.17052e-05 0
0.754283 4.56791e-05 0
0.755003 5.99555e-05 0
0.755019 7.0468e-05 0
0.754998 7.59451e-05 0
0.754976 7.59559e-05 0
0.754956 7.05973e-05 0
0.75494 6.04435e-05 0
0.754929 4.64837e-05 0
0.754924 3.00265e-05 0
0.754925 1.25825e-05 0
0.754933 -4.26919e-06 0
0.754945 -1.90171e-05 0
0.754961 -3.03495e-05 0
0.754979 -3.72713e-05 0
0.754998 -3.91963e-05 0
0.754987 -3.60071e-05 0
0.754356 -2.80997e-05 0
0.742827 -1.66873e-05 0
0.594331 -5.85926e-06 0
-0.590959 2.58126e-05 0
0.594387 2.30734e-07 0
0.742273 2.64957e-05 0
0.754312 3.62145e-05 0
0.755035 4.7019e-05 0
0.755056 5.51266e-05 0
0.755041 5.94738e-05 0
0.755024 5.97212e-05 0
0.755009 5.59317e-05 0
0.754996 4.85275e-05 0
0.754988 3.82438e-05 0
0.754984 2.60589e-05 0
0.754984 1.31051e-05 0
0.754989 5.67893e-07 0
0.754998 -1.04182e-05 0
0.75501 -1.88699e-05 0
0.755024 -2.4043e-05 0
0.755037 -2.5501e-05 0
0.755022 -2.31591e-05 0
0.754387 -1.73221e-05 0
0.742859 -8.99628e-06 0
0.594368 -1.97116e-06 0
-0.590996 2.16381e-05 0
0.594423 1.93411e-07 0
0.742305 2.22189e-05 0
0.754343 2.87506e-05 0
0.755069 3.69681e-05 0
0.755093 4.32833e-05 0
0.755081 4.67887e-05 0
0.755069 4.7216e-05 0
0.755057 4.4606e-05 0
0.755047 3.92694e-05 0
0.755041 3.17532e-05 0
0.755037 2.27881e-05 0
0.755037 1.32222e-05 0
0.755041 3.94449e-06 0
0.755047 -4.19423e-06 0
0.755056 -1.04568e-05 0
0.755066 -1.42862e-05 0
0.755076 -1.53563e-05 0
0.755057 -1.36042e-05 0
0.75442 -9.26502e-06 0
0.742893 -3.19122e-06 0
0.594407 1.0339e-06 0
-0.591036 1.81354e-05 0
0.594462 1.62102e-07 0
0.742339 1.86357e-05 0
0.754375 2.27806e-05 0
0.755103 2.90745e-05 0
0.75513 3.40593e-05 0
0.755121 3.69436e-05 0
0.755111 3.75141e-05 0
0.755102 3.5797e-05 0
0.755094 3.20214e-05 0
0.755089 2.6594e-05 0
0.755086 2.00609e-05 0
0.755086 1.30565e-05 0
0.755088 6.24716e-06 0
0.755093 2.70646e-07 0
0.755099 -4.32045e-06 0
0.755107 -7.10862e-06 0
0.755113 -7.84934e-06 0
0.755093 -6.49523e-06 0
0.754453 -3.22838e-06 0
0.742929 1.21259e-06 0
0.594448 3.38255e-06 0
-0.591076 1.51341e-05 0
0.594501 1.35284e-07 0
0.742373 1.55707e-05 0
0.754407 1.79293e-05 0
0.755136 2.27973e-05 0
0.755165 2.67997e-05 0
0.755158 2.92317e-05 0
0.755151 2.99217e-05 0
0.755144 2.88864e-05 0
0.755138 2.6295e-05 0
0.755133 2.245e-05 0
0.755131 1.77592e-05 0
0.755131 1.26974e-05 0
0.755132 7.76354e-06 0
0.755135 3.43572e-06 0
0.75514 1.28333e-07 0
0.755145 -1.84532e-06 0
0.75515 -2.3013e-06 0
0.755128 -1.20318e-06 0
0.754487 1.30682e-06 0
0.742964 4.57401e-06 0
0.594489 5.24211e-06 0
-0.591117 1.25093e-05 0
0.594541 1.11835e-07 0
0.742407 1.28948e-05 0
0.754439 1.39185e-05 0
0.755169 1.77343e-05 0
0.755199 2.10166e-05 0
0.755194 2.31246e-05 0
0.755188 2.3919e-05 0
0.755183 2.341e-05 0
0.755178 2.17225e-05 0
0.755174 1.90819e-05 0
0.755172 1.57926e-05 0
0.755172 1.22097e-05 0
0.755173 8.70701e-06 0
0.755175 5.64292e-06 0
0.755178 3.32832e-06 0
0.755182 1.99868e-06 0
0.755186 1.79284e-06 0
0.755162 2.73927e-06 0
0.75452 4.72561e-06 0
0.743 7.15885e-06 0
0.59453 6.73615e-06 0
-0.591157 1.0169e-05 0
0.594581 9.0933e-08 0
0.742441 1.05133e-05 0
0.75447 1.05421e-05 0
0.755201 1.35862e-05 0
0.755232 1.63458e-05 0
0.755228 1.82275e-05 0
0.755223 1.91166e-05 0
0.755219 1.90189e-05 0
0.755215 1.8027e-05 0
0.755212 1.63085e-05 0
0.75521 1.40909e-05 0
0.75521 1.16399e-05 0
0.75521 9.23543e-06 0
0.755212 7.14626e-06 0
0.755214 5.60588e-06 0
0.755217 4.79155e-06 0
0.755219 4.80848e-06 0
0.755194 5.67922e-06 0
0.754553 7.3137e-06 0
0.743035 9.1641e-06 0
0.594572 7.95595e-06 0
-0.591198 8.04583e-06 0
0.59462 7.19744e-08 0
0.742474 8.35662e-06 0
0.7545 7.64668e-06 0
0.755231 1.01299e-05 0
0.755263 1.25153e-05 0
0.755261 1.42449e-05 0
0.755257 1.52227e-05 0
0.755253 1.54515e-05 0
0.75525 1.49998e-05 0
0.755247 1.39928e-05 0
0.755246 1.26003e-05 0
0.755245 1.10212e-05 0
0.755245 9.4652e-06 0
0.755246 8.13409e-06 0
0.755248 7.20341e-06 0
0.75525 6.80685e-06 0
0.755251 7.02448e-06 0
0.755226 7.87442e-06 0
0.754584 9.28311e-06 0
0.743069 1.07358e-05 0
0.594612 8.96897e-06 0
-0.591237 6.09013e-06 0
0.594659 5.45146e-08 0
0.742506 6.37333e-06 0
0.754529 5.11835e-06 0
0.75526 7.19891e-06 0
0.755293 9.32204e-06 0
0.755291 1.09558e-05 0
0.755288 1.20183e-05 0
0.755284 1.25107e-05 0
0.755282 1.24838e-05 0
0.75528 1.20308e-05 0
0.755278 1.12788e-05 0
0.755278 1.03767e-05 0
0.755278 9.48189e-06 0
0.755278 8.74582e-06 0
0.75528 8.3007e-06 0
0.755281 8.24766e-06 0
0.755282 8.64791e-06 0
0.755256 9.51618e-06 0
0.754614 1.07911e-05 0
0.743102 1.19822e-05 0
0.594652 9.82505e-06 0
-0.591276 4.26535e-06 0
0.594697 3.82261e-08 0
0.742537 4.5256e-06 0
0.754556 2.87222e-06 0
0.755287 4.66903e-06 0
0.75532 6.61388e-06 0
0.755319 8.1943e-06 0
0.755316 9.33919e-06 0
0.755314 1.00486e-05 0
0.755312 1.03601e-05 0
0.75531 1.03435e-05 0
0.755309 1.00938e-05 0
0.755308 9.72265e-06 0
0.755308 9.34816e-06 0
0.755308 9.08434e-06 0
0.755309 9.03091e-06 0
0.75531 9.26457e-06 0
0.75531 9.83239e-06 0
0.755284 1.07465e-05 0
0.754642 1.19545e-05 0
0.743134 1.29835e-05 0
0.594691 1.0561e-05 0
-0.591314 2.54446e-06 0
0.594734 2.28669e-08 0
0.742566 2.7854e-06 0
0.754582 8.44929e-07 0
0.755313 2.44726e-06 0
0.755346 4.27695e-06 0
0.755345 5.8361e-06 0
0.755343 7.06186e-06 0
0.755341 7.95349e-06 0
0.755339 8.53908e-06 0
0.755338 8.87075e-06 0
0.755336 9.01971e-06 0
0.755336 9.06975e-06 0
0.755336 9.10971e-06 0
0.755336 9.22549e-06 0
0.755336 9.49249e-06 0
0.755337 9.96913e-06 0
0.755337 1.06918e-05 0
0.75531 1.16706e-05 0
0.754668 1.28597e-05 0
0.743163 1.37993e-05 0
0.594728 1.12041e-05 0
-0.59135 9.07373e-07 0
0.59477 8.2571e-09 0
0.742593 1.13183e-06 0
0.754606 -1.01099e-06 0
0.755336 4.63884e-07 0
0.75537 2.22573e-06 0
0.75537 3.78772e-06 0
0.755368 5.09332e-06 0
0.755366 6.14133e-06 0
0.755364 6.95274e-06 0
0.755363 7.56662e-06 0
0.755362 8.03643e-06 0
0.755361 8.42516e-06 0
0.755361 8.79971e-06 0
0.755361 9.22496e-06 0
0.755361 9.75813e-06 0
0.755362 1.04439e-05 0
0.755361 1.13105e-05 0
0.755334 1.23665e-05 0
0.754693 1.3571e-05 0
0.743191 1.44736e-05 0
0.594765 1.17745e-05 0
-0.591385 -6.60977e-07 0
0.594804 -5.73807e-09 0
0.742619 -4.50787e-07 0
0.754628 -2.73125e-06 0
0.755358 -1.33356e-06 0
0.755393 3.95861e-07 0
0.755392 1.97875e-06 0
0.75539 3.36341e-06 0
0.755389 4.5484e-06 0
0.755387 5.54946e-06 0
0.755386 6.39594e-06 0
0.755385 7.12806e-06 0
0.755385 7.79326e-06 0
0.755384 8.44206e-06 0
0.755384 9.12359e-06 0
0.755384 9.88138e-06 0
0.755384 1.07497e-05 0
0.755384 1.1751e-05 0
0.755357 1.28921e-05 0
0.754716 1.4136e-05 0
0.743218 1.50394e-05 0
0.5948 1.22872e-05 0
-0.591419 -2.172e-06 0
0.594837 -1.92208e-08 0
0.742643 -1.97436e-06 0
0.754649 -4.34286e-06 0
0.755378 -2.98468e-06 0
0.755413 -1.26125e-06 0
0.755413 3.5599e-07 0
0.755411 1.81906e-06 0
0.75541 3.12641e-06 0
0.755408 4.28988e-06 0
0.755407 5.33161e-06 0
0.755406 6.28191e-06 0
0.755406 7.17661e-06 0
0.755405 8.05392e-06 0
0.755405 8.95117e-06 0
0.755405 9.90164e-06 0
0.755405 1.09318e-05 0
0.755405 1.20594e-05 0
0.755377 1.32903e-05 0
0.754737 1.459e-05 0
0.743242 1.5521e-05 0
0.594833 1.27534e-05 0
-0.591451 -3.6345e-06 0
0.594869 -3.22699e-08 0
0.742665 -3.44807e-06 0
0.754667 -5.86641e-06 0
0.755397 -4.51955e-06 0
0.755431 -2.78245e-06 0
0.755431 -1.12091e-06 0
0.755429 4.19972e-07 0
0.755428 1.83859e-06 0
0.755427 3.14392e-06 0
0.755426 4.3527e-06 0
0.755425 5.48782e-06 0
0.755425 6.57642e-06 0
0.755424 7.64748e-06 0
0.755424 8.72944e-06 0
0.755424 9.84785e-06 0
0.755424 1.10233e-05 0
0.755423 1.22699e-05 0
0.755396 1.35929e-05 0
0.754755 1.49593e-05 0
0.743265 1.59366e-05 0
0.594865 1.31815e-05 0
-0.591482 -5.05536e-06 0
0.594899 -4.49468e-08 0
0.742685 -4.87911e-06 0
0.754684 -7.31775e-06 0
0.755413 -5.96117e-06 0
0.755447 -4.19583e-06 0
0.755447 -2.4827e-06 0
0.755446 -8.64607e-07 0
0.755445 6.56828e-07 0
0.755444 2.08844e-06 0
0.755443 3.44291e-06 0
0.755442 4.73759e-06 0
0.755441 5.99304e-06 0
0.755441 7.23132e-06 0
0.755441 8.47416e-06 0
0.755441 9.74125e-06 0
0.755441 1.10487e-05 0
0.75544 1.2408e-05 0
0.755412 1.38234e-05 0
0.754772 1.52636e-05 0
0.743285 1.62999e-05 0
0.594896 1.35779e-05 0
-0.591512 -6.44012e-06 0
0.594928 -5.73014e-08 0
0.742703 -6.27326e-06 0
0.754698 -8.70922e-06 0
0.755427 -7.32725e-06 0
0.755461 -5.52296e-06 0
0.755462 -3.75296e-06 0
0.75546 -2.05827e-06 0
0.755459 -4.40514e-07 0
0.755458 1.10553e-06 0
0.755457 2.58949e-06 0
0.755457 4.02453e-06 0
0.755456 5.42625e-06 0
0.755456 6.81145e-06 0
0.755455 8.19677e-06 0
0.755455 9.59746e-06 0
0.755455 1.10262e-05 0
0.755454 1.24923e-05 0
0.755427 1.39995e-05 0
0.754787 1.55176e-05 0
0.743304 1.66212e-05 0
0.594925 1.39474e-05 0
-0.591539 -7.79337e-06 0
0.594955 -6.93743e-08 0
0.74272 -7.63527e-06 0
0.754711 -1.00506e-05 0
0.755439 -8.63164e-06 0
0.755474 -6.78058e-06 0
0.755474 -4.94994e-06 0
0.755473 -3.17927e-06 0
0.755472 -1.47021e-06 0
0.755471 1.81246e-07 0
0.75547 1.7824e-06 0
0.755469 3.34321e-06 0
0.755469 4.87549e-06 0
0.755468 6.39203e-06 0
0.755468 7.90558e-06 0
0.755468 9.42795e-06 0
0.755468 1.09692e-05 0
0.755467 1.2537e-05 0
0.755439 1.41345e-05 0
0.7548 1.57323e-05 0
0.74332 1.69085e-05 0
0.594952 1.4294e-05 0
-0.591566 -9.11898e-06 0
0.594981 -8.12004e-08 0
0.742734 -8.96916e-06 0
0.754722 -1.13498e-05 0
0.755449 -9.88529e-06 0
0.755484 -7.98183e-06 0
0.755484 -6.08791e-06 0
0.755483 -4.24189e-06 0
0.755482 -2.4454e-06 0
0.755481 -6.95398e-07 0
0.755481 1.01362e-06 0
0.75548 2.68913e-06 0
0.755479 4.34002e-06 0
0.755479 5.97595e-06 0
0.755479 7.60665e-06 0
0.755478 9.24128e-06 0
0.755478 1.08878e-05 0
0.755477 1.25525e-05 0
0.75545 1.42383e-05 0
0.754811 1.59162e-05 0
0.743335 1.71679e-05 0