# vtk DataFile Version 3.0
vtk output
ASCII
DATASET UNSTRUCTURED_GRID
POINTS 1913 double
0.045977 0 0
0.045977 0.0952381 0
0.045977 0.142857 0
0.045977 0.190476 0
0.045977 0.238095 0
0.045977 0.285714 0
0.045977 0.333333 0
0.045977 0.380952 0
0.045977 0.428571 0
0.045977 0.47619 0
0.045977 0.52381 0
0.045977 0.571429 0
0.045977 0.619048 0
0.045977 0.666667 0
0.045977 0.714286 0
0.045977 0.761905 0
0.045977 0.809524 0
0.045977 0.857143 0
0.045977 0.904762 0
0.045977 0.952381 0
0.045977 1 0
0.091954 0 0
0.091954 0.047619 0
0.091954 0.0952381 0
0.091954 0.142857 0
0.091954 0.190476 0
0.091954 0.238095 0
0.091954 0.285714 0
0.091954 0.333333 0
0.091954 0.380952 0
0.091954 0.428571 0
0.091954 0.47619 0
0.091954 0.52381 0
0.091954 0.571429 0
0.091954 0.619048 0
0.091954 0.666667 0
0.091954 0.714286 0
0.091954 0.761905 0
0.091954 0.809524 0
0.091954 0.857143 0
0.091954 0.904762 0
0.091954 0.952381 0
0.091954 1 0
0.137931 0 0
0.137931 0.047619 0
0.137931 0.0952381 0
0.137931 0.142857 0
0.137931 0.190476 0
0.137931 0.238095 0
0.137931 0.285714 0
0.137931 0.333333 0
0.137931 0.380952 0
0.137931 0.428571 0
0.137931 0.47619 0
0.137931 0.52381 0
0.137931 0.571429 0
0.137931 0.619048 0
0.137931 0.666667 0
0.137931 0.714286 0
0.137931 0.761905 0
0.137931 0.809524 0
0.137931 0.857143 0
0.137931 0.904762 0
0.137931 0.952381 0
0.137931 1 0
0.183908 0 0
0.183908 0.047619 0
0.183908 0.0952381 0
0.183908 0.142857 0
0.183908 0.190476 0
0.183908 0.238095 0
0.183908 0.285714 0
0.183908 0.333333 0
0.183908 0.380952 0
0.183908 0.428571 0
0.183908 0.47619 0
0.183908 0.52381 0
0.183908 0.571429 0
0.183908 0.619048 0
0.183908 0.666667 0
0.183908 0.714286 0
0.183908 0.761905 0
0.183908 0.809524 0
0.183908 0.857143 0
0.183908 0.904762 0
0.183908 0.952381 0
0.183908 1 0
0.229885 0 0
0.229885 0.047619 0
0.229885 0.0952381 0
0.229885 0.142857 0
0.229885 0.190476 0
0.229885 0.238095 0
0.229885 0.285714 0
0.229885 0.333333 0
0.229885 0.380952 0
0.229885 0.428571 0
0.229885 0.47619 0
0.229885 0.52381 0
0.229885 0.571429 0
0.229885 0.619048 0
0.229885 0.666667 0
0.229885 0.714286 0
0.229885 0.761905 0
0.229885 0.809524 0
0.229885 0.857143 0
0.229885 0.904762 0
0.229885 0.952381 0
0.229885 1 0
0.275862 0 0
0.275862 0.047619 0
0.275862 0.0952381 0
0.275862 0.142857 0
0.275862 0.190476 0
0.275862 0.238095 0
0.275862 0.285714 0
0.275862 0.333333 0
0.275862 0.380952 0
0.275862 0.428571 0
0.275862 0.47619 0
0.275862 0.52381 0
0.275862 0.571429 0
0.275862 0.619048 0
0.275862 0.666667 0
0.275862 0.714286 0
0.275862 0.761905 0
0.275862 0.809524 0
0.275862 0.857143 0
0.275862 0.904762 0
0.275862 0.952381 0
0.275862 1 0
0.321839 0 0
0.321839 0.047619 0
0.321839 0.0952381 0
0.321839 0.142857 0
0.321839 0.190476 0
0.321839 0.238095 0
0.321839 0.285714 0
0.321839 0.333333 0
0.321839 0.380952 0
0.321839 0.428571 0
0.321839 0.47619 0
0.321839 0.52381 0
0.321839 0.571429 0
0.321839 0.619048 0
0.321839 0.666667 0
0.321839 0.714286 0
0.321839 0.761905 0
0.321839 0.809524 0
0.321839 0.857143 0
0.321839 0.904762 0
0.321839 0.952381 0
0.321839 1 0
0.367816 0 0
0.367816 0.047619 0
0.367816 0.0952381 0
0.367816 0.142857 0
0.367816 0.190476 0
0.367816 0.238095 0
0.367816 0.285714 0
0.367816 0.333333 0
0.367816 0.380952 0
0.367816 0.428571 0
0.367816 0.47619 0
0.367816 0.52381 0
0.367816 0.571429 0
0.367816 0.619048 0
0.367816 0.666667 0
0.367816 0.714286 0
0.367816 0.761905 0
0.367816 0.809524 0
0.367816 0.857143 0
0.367816 0.904762 0
0.367816 0.952381 0
0.367816 1 0
0.413793 0 0
0.413793 0.047619 0
0.413793 0.0952381 0
0.413793 0.142857 0
0.413793 0.190476 0
0.413793 0.238095 0
0.413793 0.285714 0
0.413793 0.333333 0
0.413793 0.380952 0
0.413793 0.428571 0
0.413793 0.47619 0
0.413793 0.52381 0
0.413793 0.571429 0
0.413793 0.619048 0
0.413793 0.666667 0
0.413793 0.714286 0
0.413793 0.761905 0
0.413793 0.809524 0
0.413793 0.857143 0
0.413793 0.904762 0
0.413793 0.952381 0
0.413793 1 0
0.45977 0 0
0.45977 0.047619 0
0.45977 0.0952381 0
0.45977 0.142857 0
0.45977 0.190476 0
0.45977 0.238095 0
0.45977 0.285714 0
0.45977 0.333333 0
0.45977 0.380952 0
0.45977 0.428571 0
0.45977 0.47619 0
0.45977 0.52381 0
0.45977 0.571429 0
0.45977 0.619048 0
0.45977 0.666667 0
0.45977 0.714286 0
0.45977 0.761905 0
0.45977 0.809524 0
0.45977 0.857143 0
0.45977 0.904762 0
0.45977 0.952381 0
0.45977 1 0
0.505747 0 0
0.505747 0.047619 0
0.505747 0.0952381 0
0.505747 0.142857 0
0.505747 0.190476 0
0.505747 0.238095 0
0.505747 0.285714 0
0.505747 0.333333 0
0.505747 0.380952 0
0.505747 0.428571 0
0.505747 0.47619 0
0.505747 0.52381 0
0.505747 0.571429 0
0.505747 0.619048 0
0.505747 0.666667 0
0.505747 0.714286 0
0.505747 0.761905 0
0.505747 0.809524 0
0.505747 0.857143 0
0.505747 0.904762 0
0.505747 0.952381 0
0.505747 1 0
0.551724 0 0
0.551724 0.047619 0
0.551724 0.0952381 0
0.551724 0.142857 0
0.551724 0.190476 0
0.551724 0.238095 0
0.551724 0.285714 0
0.551724 0.333333 0
0.551724 0.380952 0
0.551724 0.428571 0
0.551724 0.47619 0
0.551724 0.52381 0
0.551724 0.571429 0
0.551724 0.619048 0
0.551724 0.666667 0
0.551724 0.714286 0
0.551724 0.761905 0
0.551724 0.809524 0
0.551724 0.857143 0
0.551724 0.904762 0
0.551724 0.952381 0
0.551724 1 0
0.597701 0 0
0.597701 0.047619 0
0.597701 0.0952381 0
0.597701 0.142857 0
0.597701 0.190476 0
0.597701 0.238095 0
0.597701 0.285714 0
0.597701 0.333333 0
0.597701 0.380952 0
0.597701 0.428571 0
0.597701 0.47619 0
0.597701 0.52381 0
0.597701 0.571429 0
0.597701 0.619048 0
0.597701 0.666667 0
0.597701 0.714286 0
0.597701 0.761905 0
0.597701 0.809524 0
0.597701 0.857143 0
0.597701 0.904762 0
0.597701 0.952381 0
0.597701 1 0
0.643678 0 0
0.643678 0.047619 0
0.643678 0.0952381 0
0.643678 0.142857 0
0.643678 0.190476 0
0.643678 0.238095 0
0.643678 0.285714 0
0.643678 0.333333 0
0.643678 0.380952 0
0.643678 0.428571 0
0.643678 0.47619 0
0.643678 0.52381 0
0.643678 0.571429 0
0.643678 0.619048 0
0.643678 0.666667 0
0.643678 0.714286 0
0.643678 0.761905 0
0.643678 0.809524 0
0.643678 0.857143 0
0.643678 0.904762 0
0.643678 0.952381 0
0.643678 1 0
0.689655 0 0
0.689655 0.047619 0
0.689655 0.0952381 0
0.689655 0.142857 0
0.689655 0.190476 0
0.689655 0.238095 0
0.689655 0.285714 0
0.689655 0.333333 0
0.689655 0.380952 0
0.689655 0.428571 0
0.689655 0.47619 0
0.689655 0.52381 0
0.689655 0.571429 0
0.689655 0.619048 0
0.689655 0.666667 0
0.689655 0.714286 0
0.689655 0.761905 0
0.689655 0.809524 0
0.689655 0.857143 0
0.689655 0.904762 0
0.689655 0.952381 0
0.689655 1 0
0.735632 0 0
0.735632 0.047619 0
0.735632 0.0952381 0
0.735632 0.142857 0
0.735632 0.190476 0
0.735632 0.238095 0
0.735632 0.285714 0
0.735632 0.333333 0
0.735632 0.380952 0
0.735632 0.428571 0
0.735632 0.47619 0
0.735632 0.52381 0
0.735632 0.571429 0
0.735632 0.619048 0
0.735632 0.666667 0
0.735632 0.714286 0
0.735632 0.761905 0
0.735632 0.809524 0
0.735632 0.857143 0
0.735632 0.904762 0
0.735632 0.952381 0
0.735632 1 0
0.781609 0 0
0.781609 0.047619 0
0.781609 0.0952381 0
0.781609 0.142857 0
0.781609 0.190476 0
0.781609 0.238095 0
0.781609 0.285714 0
0.781609 0.333333 0
0.781609 0.380952 0
0.781609 0.428571 0
0.781609 0.47619 0
0.781609 0.52381 0
0.781609 0.571429 0
0.781609 0.619048 0
0.781609 0.666667 0
0.781609 0.714286 0
0.781609 0.761905 0
0.781609 0.809524 0
0.781609 0.857143 0
0.781609 0.904762 0
0.781609 0.952381 0
0.781609 1 0
0.827586 0 0
0.827586 0.047619 0
0.827586 0.0952381 0
0.827586 0.142857 0
0.827586 0.190476 0
0.827586 0.238095 0
0.827586 0.285714 0
0.827586 0.333333 0
0.827586 0.380952 0
0.827586 0.428571 0
0.827586 0.47619 0
0.827586 0.52381 0
0.827586 0.571429 0
0.827586 0.619048 0
0.827586 0.666667 0
0.827586 0.714286 0
0.827586 0.761905 0
0.827586 0.809524 0
0.827586 0.857143 0
0.827586 0.904762 0
0.827586 0.952381 0
0.827586 1 0
0.873563 0 0
0.873563 0.047619 0
0.873563 0.0952381 0
0.873563 0.142857 0
0.873563 0.190476 0
0.873563 0.238095 0
0.873563 0.285714 0
0.873563 0.333333 0
0.873563 0.380952 0
0.873563 0.428571 0
0.873563 0.47619 0
0.873563 0.52381 0
0.873563 0.571429 0
0.873563 0.619048 0
0.873563 0.666667 0
0.873563 0.714286 0
0.873563 0.761905 0
0.873563 0.809524 0
0.873563 0.857143 0
0.873563 0.904762 0
0.873563 0.952381 0
0.873563 1 0
0.91954 0 0
0.91954 0.047619 0
0.91954 0.0952381 0
0.91954 0.142857 0
0.91954 0.190476 0
0.91954 0.238095 0
0.91954 0.285714 0
0.91954 0.333333 0
0.91954 0.380952 0
0.91954 0.428571 0
0.91954 0.47619 0
0.91954 0.52381 0
0.91954 0.571429 0
0.91954 0.619048 0
0.91954 0.666667 0
0.91954 0.714286 0
0.91954 0.761905 0
0.91954 0.809524 0
0.91954 0.857143 0
0.91954 0.904762 0
0.91954 0.952381 0
0.91954 1 0
0.965517 0 0
0.965517 0.047619 0
0.965517 0.0952381 0
0.965517 0.142857 0
0.965517 0.190476 0
0.965517 0.238095 0
0.965517 0.285714 0
0.965517 0.333333 0
0.965517 0.380952 0
0.965517 0.428571 0
0.965517 0.47619 0
0.965517 0.52381 0
0.965517 0.571429 0
0.965517 0.619048 0
0.965517 0.666667 0
0.965517 0.714286 0
0.965517 0.761905 0
0.965517 0.809524 0
0.965517 0.857143 0
0.965517 0.904762 0
0.965517 0.952381 0
0.965517 1 0
1.01149 0 0
1.01149 0.047619 0
1.01149 0.0952381 0
1.01149 0.142857 0
1.01149 0.190476 0
1.01149 0.238095 0
1.01149 0.285714 0
1.01149 0.333333 0
1.01149 0.380952 0
1.01149 0.428571 0
1.01149 0.47619 0
1.01149 0.52381 0
1.01149 0.571429 0
1.01149 0.619048 0
1.01149 0.666667 0
1.01149 0.714286 0
1.01149 0.761905 0
1.01149 0.809524 0
1.01149 0.857143 0
1.01149 0.904762 0
1.01149 0.952381 0
1.01149 1 0
1.05747 0 0
1.05747 0.047619 0
1.05747 0.0952381 0
1.05747 0.142857 0
1.05747 0.190476 0
1.05747 0.238095 0
1.05747 0.285714 0
1.05747 0.333333 0
1.05747 0.380952 0
1.05747 0.428571 0
1.05747 0.47619 0
1.05747 0.52381 0
1.05747 0.571429 0
1.05747 0.619048 0
1.05747 0.666667 0
1.05747 0.714286 0
1.05747 0.761905 0
1.05747 0.809524 0
1.05747 0.857143 0
1.05747 0.904762 0
1.05747 0.952381 0
1.05747 1 0
1.10345 0 0
1.10345 0.047619 0
1.10345 0.0952381 0
1.10345 0.142857 0
1.10345 0.190476 0
1.10345 0.238095 0
1.10345 0.285714 0
1.10345 0.333333 0
1.10345 0.380952 0
1.10345 0.428571 0
1.10345 0.47619 0
1.10345 0.52381 0
1.10345 0.571429 0
[...]
POINT_DATA 1913
VECTORS velocity[m/s] double
-0 0.209471 0
0 0.209471 0
0 0.209418 0
0 0.181021 0
0 0.150702 0
0 0.121955 0
0 0.0949436 0
0 0.0693301 0
0 0.0446962 0
0 0.0206276 0
0 -0.00327577 0
0 -0.0274145 0
0 -0.0522169 0
0 -0.0781742 0
0 -0.105889 0
0 -0.136138 0
0 -0.169967 0
0 -0.2088 0
0 -0.254142 0
0 -0.302636 0
0 -0.30982 0
-0.872419 0.18524 0
0.87242 0.00163381 0
1.07472 0.18524 0
1.10209 0.208852 0
1.10394 0.184476 0
1.10242 0.153089 0
1.10075 0.123309 0
1.0994 0.0957428 0
1.09845 0.0698193 0
1.09791 0.0449752 0
1.09775 0.0207375 0
1.09797 -0.00331799 0
1.09861 -0.0276042 0
1.09973 -0.052558 0
1.10142 -0.0786819 0
1.10387 -0.106602 0
1.10733 -0.137157 0
1.11216 -0.171532 0
1.11844 -0.211119 0
1.12149 -0.25495 0
1.0816 -0.286221 0
0.775527 -0.23519 0
-0.695146 0.14468 0
0.695146 0.00129612 0
1.05192 0.14468 0
1.12562 0.189929 0
1.13425 0.178715 0
1.13118 0.151282 0
1.12736 0.122346 0
1.12443 0.0950371 0
1.12244 0.0693259 0
1.12131 0.0446996 0
1.12097 0.0206808 0
1.12142 -0.00314764 0
1.12271 -0.0271806 0
1.12495 -0.051829 0
1.12838 -0.07756 0
1.13337 -0.104949 0
1.14052 -0.134737 0
1.15038 -0.167722 0
1.16076 -0.203555 0
1.15168 -0.235233 0
1.03233 -0.234694 0
0.548447 -0.1463 0
-0.556706 0.105545 0
0.556706 0.000944867 0
1.00823 0.105545 0
1.13645 0.161775 0
1.16073 0.16474 0
1.15912 0.144668 0
1.15373 0.11872 0
1.14925 0.0927456 0
1.14622 0.0678594 0
1.1445 0.0438899 0
1.14398 0.0204628 0
1.14463 -0.00278476 0
1.14651 -0.0261972 0
1.1498 -0.0501264 0
1.15483 -0.0749603 0
1.16213 -0.101145 0
1.17237 -0.129129 0
1.18498 -0.15884 0
1.19135 -0.187432 0
1.15116 -0.202989 0
0.946983 -0.176753 0
0.407192 -0.083672 0
-0.455714 0.0738506 0
0.455714 0.000660506 0
0.953942 0.0738506 0
1.13359 0.132264 0
1.18011 0.146313 0
1.18417 0.134378 0
1.17881 0.112752 0
1.17328 0.0890194 0
1.16936 0.0655196 0
1.16712 0.0426034 0
1.16643 0.0200967 0
1.16723 -0.00226353 0
1.16961 -0.0247439 0
1.17377 -0.0476134 0
1.18011 -0.0711501 0
1.18915 -0.0956154 0
1.20105 -0.121044 0
1.21258 -0.146339 0
1.20637 -0.16653 0
1.12583 -0.167809 0
0.857112 -0.128022 0
0.326405 -0.0478313 0
-0.385048 0.0504911 0
0.385048 0.000451218 0
0.897543 0.0504911 0
1.12002 0.105588 0
1.19164 0.126764 0
1.20505 0.122087 0
1.20172 0.105179 0
1.19597 0.084221 0
1.19149 0.0625078 0
1.18885 0.0409454 0
1.18801 0.0196128 0
1.18894 -0.00162401 0
1.19169 -0.0229383 0
1.1965 -0.0445048 0
1.20373 -0.0664798 0
1.21371 -0.0889178 0
1.22548 -0.111417 0
1.23208 -0.131965 0
1.2076 -0.144329 0
1.08741 -0.1354 0
0.779687 -0.0917925 0
0.280224 -0.0286676 0
-0.336734 0.0343612 0
0.336735 0.000306851 0
0.844347 0.0343612 0
1.09958 0.0833576 0
1.19615 0.108219 0
1.22138 0.109259 0
1.22196 0.0968122 0
1.21694 0.0787907 0
1.21231 0.0590733 0
1.20945 0.0390475 0
1.20852 0.0190528 0
1.20952 -0.000905929 0
1.21251 -0.0209058 0
1.21772 -0.0410285 0
1.2254 -0.0613118 0
1.23543 -0.0816092 0
1.24532 -0.101123 0
1.24402 -0.117172 0
1.19898 -0.123109 0
1.04531 -0.108006 0
0.718739 -0.0662583 0
0.252545 -0.0183131 0
-0.303855 0.0237151 0
0.303855 0.000211632 0
0.79704 0.0237151 0
1.07557 0.0657204 0
1.19515 0.0917401 0
1.23339 0.0969 0
1.23936 0.0883222 0
1.23597 0.0731355 0
1.23164 0.055458 0
1.22875 0.0370413 0
1.22779 0.0184609 0
1.22883 -0.000144851 0
1.23194 -0.0187633 0
1.2373 -0.0373934 0
1.24499 -0.0559664 0
1.25427 -0.0741569 0
1.26081 -0.0908451 0
1.24975 -0.102946 0
1.1844 -0.104036 0
1.005 -0.0858924 0
0.672448 -0.0485731 0
0.234864 -0.0124141 0
-0.281163 0.0168629 0
0.281163 0.000150378 0
0.756484 0.0168629 0
1.05045 0.0521309 0
1.19017 0.0776675 0
1.24168 0.085574 0
1.25402 0.0801748 0
1.25304 0.0675711 0
1.24942 0.0518614 0
1.24669 0.0350388 0
1.24576 0.0178758 0
1.2468 0.00062962 0
1.24993 -0.0166092 0
1.25523 -0.03377 0
1.26256 -0.0506943 0
1.27038 -0.0669059 0
1.2725 -0.081044 0
1.2508 -0.0898513 0
1.16688 -0.0875275 0
0.968971 -0.0684736 0
0.637536 -0.0363003 0
0.222879 -0.00882541 0
-0.265027 0.0124714 0
0.265027 0.000111142 0
0.722432 0.0124714 0
1.0258 0.04182 0
1.18254 0.0659358 0
1.24689 0.0755225 0
1.26619 0.0726426 0
1.26821 0.0623087 0
1.26567 0.0484262 0
1.26326 0.033123 0
1.26241 0.0173262 0
1.26345 0.0013941 0
1.2665 -0.0145181 0
1.27157 -0.0302842 0
1.27821 -0.0456718 0
1.28404 -0.060082 0
1.281 -0.0719903 0
1.24856 -0.0781467 0
1.14849 -0.0735714 0
0.937907 -0.0549159 0
0.611009 -0.0276833 0
0.214358 -0.00651108 0
-0.253094 0.00961346 0
0.253094 8.56221e-05 0
0.694096 0.00961344 0
1.00251 0.0340369 0
1.17328 0.0562895 0
1.24967 0.066781 0
1.27617 0.0658507 0
1.28161 0.0574672 0
1.28044 0.0452398 0
1.27852 0.0313468 0
1.27779 0.0168298 0
1.27881 0.00213095 0
1.28172 -0.0125421 0
1.28643 -0.0270192 0
1.29212 -0.0410079 0
1.29553 -0.0538126 0
1.28694 -0.0638119 0
1.24414 -0.0678904 0
1.13048 -0.0619466 0
0.911614 -0.0444107 0
0.590567 -0.0215375 0
0.208072 -0.0049515 0
-0.243895 0.00769652 0
0.243895 6.85152e-05 0
0.670515 0.00769649 0
0.981028 0.0281484 0
1.16315 0.0484114 0
1.25057 0.0592723 0
1.28427 0.0598251 0
1.29342 0.0530959 0
1.29386 0.0423445 0
1.29253 0.0297367 0
1.29198 0.0163943 0
1.29298 0.00282739 0
1.2957 -0.0107132 0
1.29994 -0.0240223 0
1.30449 -0.0367584 0
1.30519 -0.0481521 0
1.29088 -0.0565401 0
1.2384 -0.0590245 0
1.11355 -0.0523512 0
0.88953 -0.0362707 0
0.574554 -0.0170815 0
0.203292 -0.00386701 0
-0.236531 0.00636115 0
0.236531 5.66055e-05 0
0.650769 0.00636112 0
0.961464 0.0236603 0
1.15266 0.0419905 0
1.25004 0.0528665 0
1.29076 0.0545328 0
1.3038 0.0491967 0
1.30603 0.0397495 0
1.30542 0.0282992 0
1.30508 0.0160193 0
1.30605 0.00347476 0
1.30855 -0.00904753 0
1.31224 -0.0213133 0
1.31549 -0.0329401 0
1.31329 -0.0431049 0
1.29328 -0.0501462 0
1.23196 -0.0514306 0
1.09802 -0.0444719 0
0.871003 -0.0299455 0
0.561795 -0.0137995 0
0.199558 -0.00309539 0
-0.230444 0.00539452 0
0.230445 4.79892e-05 0
0.634067 0.00539449 0
0.943767 0.020203 0
1.14216 0.0367502 0
1.24843 0.047418 0
1.29592 0.0499102 0
1.31292 0.0457432 0
1.31709 0.0374426 0
1.31727 0.0270274 0
1.31719 0.0156993 0
1.31815 0.00406767 0
1.3204 -0.00754945 0
1.32346 -0.0188922 0
1.3253 -0.0295437 0
1.32009 -0.0386441 0
1.29452 -0.044567 0
1.22524 -0.0449651 0
1.08399 -0.0380173 0
0.855414 -0.0250079 0
0.551461 -0.0113475 0
0.19657 -0.00253646 0
-0.225283 0.00467034 0
0.225283 4.15369e-05 0
0.619769 0.00467031 0
0.927791 0.0175064 0
1.13186 0.0324577 0
1.24602 0.0427846 0
1.29994 0.045881 0
1.32094 0.0426938 0
1.32714 0.0353991 0
1.32821 0.0259061 0
1.32843 0.0154259 0
1.32936 0.00460336 0
1.33135 -0.00621526 0
1.33375 -0.0167463 0
1.33409 -0.0265436 0
1.32581 -0.0347247 0
1.29491 -0.0397231 0
1.21853 -0.03948 0
1.07143 -0.0327315 0
0.842226 -0.0211316 0
0.542954 -0.0094915 0
0.194122 -0.00212542 0
-0.220814 0.00411183 0
0.220815 3.65625e-05 0
0.607376 0.0041118 0
0.913355 0.0153746 0
1.12189 0.0289224 0
1.24303 0.0388368 0
1.30302 0.0423678 0
1.32798 0.0400016 0
1.33631 0.0335887 0
1.33833 0.0249162 0
1.33888 0.0151894 0
1.33981 0.0050812 0
1.34152 -0.00503599 0
1.34321 -0.0148555 0
1.34199 -0.0239056 0
1.33063 -0.0312934 0
1.29467 -0.0355299 0
1.21202 -0.0348341 0
1.06023 -0.0283972 0
0.830987 -0.0180684 0
0.535842 -0.00806964 0
0.19207 -0.00181899 0
-0.21688 0.00367049 0
0.216881 3.26328e-05 0
0.596502 0.00367046 0
0.900275 0.013666 0
1.11232 0.0259909 0
1.23962 0.0354612 0
1.3053 0.0392974 0
1.33417 0.0376191 0
1.34468 0.03198 0
1.34772 0.0240379 0
1.34864 0.0149804 0
1.34958 0.00550214 0
1.351 -0.00399966 0
1.35195 -0.0131955 0
1.34912 -0.0215916 0
1.33472 -0.0282947 0
1.294 -0.0319044 0
1.20581 -0.0308996 0
1.05026 -0.0248338 0
0.821334 -0.0156306 0
0.529808 -0.00696777 0
0.190314 -0.00158749 0
-0.213368 0.00331434 0
0.213369 2.94625e-05 0
0.586852 0.0033143 0
0.888376 0.0122773 0
1.10318 0.0235414 0
1.23592 0.0325613 0
1.30692 0.0366039 0
1.33962 0.0355023 0
1.35235 0.0305429 0
1.35647 0.0232521 0
1.35779 0.0147903 0
1.35875 0.00586837 0
1.35988 -0.00309284 0
1.36005 -0.011741 0
1.3556 -0.0195633 0
1.33821 -0.0256745 0
1.29303 -0.0287691 0
1.19995 -0.0275632 0
1.04138 -0.021893 0
0.81297 -0.0136752 0
0.524614 -0.00610408 0
0.188782 -0.00141021 0
-0.210198 0.00302149 0
0.210198 2.68562e-05 0
0.578199 0.00302145 0
0.8775 0.0111328 0
1.09447 0.0214769 0
1.23202 0.0300557 0
1.30799 0.0342296 0
1.34441 0.0336115 0
1.35939 0.02925 0
1.36464 0.0225415 0
1.3664 0.0146119 0
1.3674 0.00618293 0
1.36823 -0.0023017 0
1.36761 -0.0104671 0
1.3615 -0.0177843 0
1.3412 -0.0233824 0
1.29187 -0.026054 0
1.19447 -0.0247271 0
1.03344 -0.0194545 0
0.80566 -0.0120937 0
0.520082 -0.00541915 0
0.187421 -0.00127245 0
-0.207307 0.00277647 0
0.207307 2.4676e-05 0
0.570367 0.00277643 0
0.867513 0.0101767 0
1.08619 0.0197213 0
1.22799 0.0278771 0
1.30859 0.032125 0
1.34862 0.0319121 0
1.36587 0.0280778 0
1.37229 0.0218916 0
1.37454 0.0144392 0
1.3756 0.00644948 0
1.37611 -0.00161277 0
1.37467 -0.00935044 0
1.3669 -0.0162207 0
1.34378 -0.021373 0
1.29059 -0.0236969 0
1.18938 -0.0223082 0
1.02634 -0.0174208 0
0.799216 -0.010803 0
0.516079 -0.00486932 0
0.186192 -0.00116368 0
-0.204651 0.00256816 0
0.204651 2.28227e-05 0
0.563223 0.00256811 0
0.858298 0.00936718 0
1.07831 0.0182143 0
1.22389 0.0259696 0
1.30879 0.0302481 0
1.35232 0.0303749 0
1.37184 0.0270061 0
1.37949 0.0212898 0
1.38226 0.014268 0
1.38338 0.00667201 0
1.38358 -0.00101332 0
1.38131 -0.00836944 0
1.37188 -0.0148425 0
1.34602 -0.0196059 0
1.28925 -0.021644 0
1.18467 -0.0202359 0
1.01995 -0.0157135 0
0.793488 -0.00973932 0
0.512501 -0.00442218 0
0.185069 -0.00107625 0
-0.202194 0.00238839 0
0.202194 2.12237e-05 0
0.556659 0.00238834 0
0.849757 0.00867308 0
1.07083 0.0169084 0
1.21976 0.0242877 0
1.30867 0.028564 0
1.35558 0.028975 0
1.37736 0.0260181 0
1.38627 0.0207264 0
1.38959 0.0140951 0
1.3908 0.00685468 0
1.39069 -0.000491651 0
1.38756 -0.00750497 0
1.37648 -0.0136228 0
1.34799 -0.0180456 0
1.28789 -0.0198484 0
1.1803 -0.0184515 0
1.01418 -0.0142697 0
0.788355 -0.00885369 0
0.509271 -0.00405352 0
0.184031 -0.00100459 0
-0.199909 0.00223113 0
0.19991 1.98251e-05 0
0.550591 0.00223109 0
0.841806 0.0080707 0
1.0637 0.0157663 0
1.21563 0.022794 0
1.30827 0.0270433 0
1.35843 0.0276918 0
1.38247 0.0251002 0
1.39267 0.0201934 0
1.39658 0.0139183 0
1.3979 0.00700166 0
1.39746 -3.71461e-05 0
1.39346 -0.00674007 0
1.38075 -0.0125383 0
1.34973 -0.0166616 0
1.28654 -0.0182704 0
1.17626 -0.0169059 0
1.00895 -0.0130389 0
0.78372 -0.00810815 0
0.506328 -0.00374515 0
0.183061 -0.000944652 0
-0.197775 0.00209191 0
0.197775 1.8587e-05 0
0.544953 0.00209186 0
0.834376 0.00754205 0
1.05692 0.0147584 0
1.21153 0.0214581 0
1.30765 0.0256618 0
1.36093 0.0265084 0
1.38721 0.0242413 0
1.39873 0.0196848 0
1.40326 0.0137366 0
1.40469 0.00711703 0
1.40393 0.000359656 0
1.39906 -0.00605997 0
1.38473 -0.011569 0
1.35128 -0.0154275 0
1.28522 -0.016876 0
1.17253 -0.0155583 0
1.00419 -0.0119807 0
0.779508 -0.00747332 0
0.503624 -0.00348329 0
0.18215 -0.000893425 0
-0.195773 0.00196733 0
0.195774 1.74793e-05 0
0.539691 0.00196728 0
0.827409 0.00707332 0
1.05045 0.0138614 0
1.20747 0.0202552 0
1.30683 0.0243994 0
1.36312 0.0254108 0
1.39161 0.0234325 0
1.40448 0.0191958 0
1.40965 0.0135495 0
1.41122 0.00720463 0
1.41013 0.000707108 0
1.40438 -0.0054519 0
1.38846 -0.0106976 0
1.35268 -0.0143211 0
1.28395 -0.0156368 0
1.16908 -0.0143753 0
0.999839 -0.0110624 0
0.775656 -0.00692632 0
0.501124 -0.00325751 0
0.181287 -0.000848711 0
-0.193891 0.00185484 0
0.193892 1.64792e-05 0
0.534762 0.00185479 0
0.820855 0.00665386 0
1.04428 0.0130565 0
1.20347 0.0191649 0
1.30586 0.0232396 0
1.36503 0.0243874 0
1.3957 0.0226667 0
1.40993 0.0187231 0
1.41578 0.013357 0
1.41749 0.0072681 0
1.41608 0.00101251 0
1.40945 -0.00490492 0
1.39195 -0.00990941 0
1.35395 -0.0133232 0
1.28273 -0.0145286 0
1.16588 -0.013329 0
0.995846 -0.0102582 0
0.772114 -0.00644929 0
0.498799 -0.00305985 0
0.180468 -0.000808886 0
-0.192117 0.00175247 0
0.192118 1.55691e-05 0
0.530129 0.00175242 0
0.814674 0.00627538 0
1.03838 0.0123292 0
1.19953 0.0181708 0
1.30475 0.0221684 0
1.3667 0.0234287 0
1.39951 0.0219382 0
1.41511 0.018264 0
1.42166 0.0131593 0
1.42353 0.00731071 0
1.42179 0.00128219 0
1.41428 -0.0044097 0
1.39525 -0.00919193 0
1.35512 -0.0124176 0
1.28158 -0.0135311 0
1.16291 -0.0123965 0
0.992169 -0.00954694 0
0.768842 -0.00602824 0
0.496626 -0.00288421 0
0.179688 -0.000772746 0
-0.190441 0.00165869 0
0.190442 1.47355e-05 0
0.525762 0.00165864 0
0.808829 0.00593137 0
1.03274 0.0116673 0
1.19567 0.0172593 0
1.30353 0.0211745 0
1.36814 0.022527 0
1.40306 0.0212424 0
1.42004 0.0178168 0
1.42731 0.0129571 0
1.42935 0.00733542 0
1.42729 0.00152155 0
1.4189 -0.00395836 0
1.39837 -0.00853466 0
1.35619 -0.0115907 0
1.28048 -0.0126273 0
1.16016 -0.011559 0
0.988772 -0.0089119 0
0.765807 -0.00565216 0
0.494588 -0.00272591 0
0.178942 -0.000739395 0
-0.188854 0.00157232 0
0.188855 1.39678e-05 0
0.521637 0.00157227 0
0.803292 0.00561667 0
1.02734 0.0110615 0
1.19189 0.016419 0
1.30223 0.0202483 0
1.36938 0.0216755 0
1.40636 0.0205758 0
1.42473 0.01738 0
1.43273 0.0127509 0
1.43497 0.00734482 0
1.43258 0.0017352 0
1.42332 -0.00354426 0
1.40132 -0.00792875 0
1.35719 -0.0108311 0
1.27945 -0.0118029 0
1.15761 -0.0108008 0
0.985625 -0.00833945 0
0.762982 -0.00531237 0
0.49267 -0.0025813 0
0.178229 -0.000708167 0
-0.18735 0.00149239 0
0.187351 1.32574e-05 0
0.517733 0.00149235 0
0.798035 0.00532713 0
1.02217 0.0105037 0
1.1882 0.0156407 0
1.30085 0.0193816 0
1.37044 0.0208687 0
1.40945 0.019935 0
1.4292 0.0169526 0
1.43795 0.0125413 0
1.44038 0.00734112 0
1.43768 0.00192697 0
1.42755 -0.0031619 0
1.40412 -0.0073668 0
1.35813 -0.010129 0
1.27848 -0.0110462 0
1.15523 -0.0101092 0
0.982703 -0.00781861 0
0.760346 -0.00500199 0
0.490862 -0.00244759 0
0.177546 -0.000678555 0
-0.185923 0.00141814 0
0.185924 1.25974e-05 0
0.514031 0.00141809 0
0.793037 0.00505938 0
1.01721 0.00998762 0
1.18459 0.0149166 0
1.29941 0.0185675 0
1.37134 0.0201019 0
1.41233 0.0193175 0
1.43346 0.0165334 0
1.44297 0.0123289 0
1.44561 0.00732613 0
1.44259 0.0021 0
1.43161 -0.00280673 0
1.40679 -0.00684265 0
1.35902 -0.00947642 0
1.27758 -0.010347 0
1.15302 -0.00947353 0
0.979984 -0.00734047 0
0.75788 -0.00471554 0
0.489155 -0.00232256 0
0.176891 -0.000650176 0
-0.184567 0.0013489 0
0.184568 1.19822e-05 0
0.510516 0.00134887 0
0.78828 0.00481063 0
1.01245 0.00950781 0
1.18106 0.0142398 0
1.29793 0.0177999 0
1.3721 0.0193706 0
1.41502 0.0187209 0
1.43752 0.0161218 0
1.44781 0.0121139 0
1.45066 0.00730129 0
1.44733 0.00225682 0
1.43551 -0.00247505 0
1.40933 -0.00635122 0
1.35986 -0.00886655 0
1.27674 -0.0096971 0
1.15096 -0.00888515 0
0.97745 -0.00689785 0
0.75557 -0.00444869 0
0.48754 -0.0022045 0
0.176264 -0.000622735 0
-0.183276 0.00128416 0
0.183278 1.14068e-05 0
0.507174 0.00128412 0
0.783745 0.00457856 0
1.00788 0.0090597 0
1.17762 0.0136046 0
1.29642 0.0170736 0
1.37273 0.0186711 0
1.41753 0.018143 0
1.44139 0.0157168 0
1.45245 0.0118965 0
1.45553 0.00726762 0
1.4519 0.00239935 0
1.43925 -0.00216396 0
1.41176 -0.00588839 0
1.36066 -0.00829382 0
1.27595 -0.00908966 0
1.14904 -0.00833688 0
0.975086 -0.00648492 0
0.753404 -0.00419795 0
0.486014 -0.00209205 0
0.175663 -0.000596008 0
-0.182048 0.00122343 0
0.182049 1.08671e-05 0
0.503993 0.0012234 0
0.779419 0.00436117 0
1.00349 0.00863939 0
1.17428 0.0130061 0
1.29487 0.0163838 0
1.37324 0.0179999 0
1.41987 0.0175815 0
1.44508 0.0153173 0
1.45692 0.0116766 0
1.46023 0.00722579 0
1.4563 0.00252899 0
1.44285 -0.0018712 0
1.41408 -0.00545086 0
1.36143 -0.00775367 0
1.27523 -0.00851898 0
1.14725 -0.00782289 0
0.972878 -0.00609699 0
0.751371 -0.00396058 0
0.48457 -0.00198417 0
0.175088 -0.00056982 0
-0.180878 0.00116631 0
0.180879 1.03596e-05 0
0.500964 0.00116629 0
0.775289 0.00415673 0
0.999278 0.00824346 0
1.17101 0.0124398 0
1.29331 0.0157261 0
1.37364 0.0173536 0
1.42206 0.0170344 0
1.4486 0.0149223 0
1.46122 0.0114537 0
1.46477 0.00717604 0
1.46055 0.00264664 0
1.4463 -0.00159514 0
1.41631 -0.00503605 0
1.36217 -0.00724241 0
1.27455 -0.00798047 0
1.14559 -0.00733845 0
0.970816 -0.00573033 0
0.749463 -0.00373445 0
0.483205 -0.00188006 0
0.174538 -0.000544045 0
-0.179763 0.00111243 0
0.179764 9.88091e-06 0
0.498077 0.00111242 0
0.771343 0.00396372 0
0.995227 0.00786887 0
1.16784 0.0119015 0
1.29174 0.0150964 0
1.37395 0.0167288 0
1.4241 0.0164994 0
1.45195 0.0145304 0
1.46535 0.0112273 0
1.46914 0.00711827 0
1.46465 0.00275272 0
1.44963 -0.00133472 0
1.41844 -0.00464204 0
1.36288 -0.00675714 0
1.27393 -0.00747042 0
1.14404 -0.00687978 0
0.968889 -0.005382 0
0.747673 -0.00351792 0
0.481915 -0.00177913 0
0.174013 -0.000518595 0
-0.178699 0.00106148 0
0.1787 9.42822e-06 0
0.495325 0.00106148 0
0.767573 0.00378078 0
0.991334 0.00751289 0
1.16476 0.0113876 0
1.29017 0.0144911 0
1.37417 0.0161226 0
1.426 0.0159741 0
1.45514 0.0141401 0
1.46932 0.0109964 0
1.47335 0.00705201 0
1.46859 0.00284725 0
1.45282 -0.00108934 0
1.42048 -0.00426751 0
1.36357 -0.00629565 0
1.27337 -0.00698594 0
1.14259 -0.00644394 0
0.96709 -0.00504974 0
0.745995 -0.00330976 0
0.480699 -0.00168098 0
0.173513 -0.000493418 0
-0.177684 0.00101315 0
0.177685 8.99882e-06 0
0.4927 0.00101316 0
0.76397 0.00360665 0
0.987593 0.007173 0
1.16176 0.0108946 0
1.28859 0.0139063 0
1.37431 0.0155315 0
1.42777 0.0154562 0
1.45817 0.0137496 0
1.47313 0.0107598 0
1.47741 0.00697644 0
1.4724 0.00292982 0
1.45589 -0.000858881 0
1.42244 -0.00391163 0
1.36424 -0.00585634 0
1.27284 -0.00652483 0
1.14125 -0.00602869 0
0.965411 -0.00473191 0
0.744423 -0.00310917 0
0.479553 -0.00158538 0
0.173037 -0.000468499 0
-0.176715 0.000967157 0
0.176716 8.59017e-06 0
0.490196 0.000967178 0
0.760527 0.00344015 0
0.984001 0.00684683 0
1.15885 0.0104193 0
1.28702 0.0133386 0
1.37439 0.0149525 0
1.42942 0.0149431 0
1.46106 0.0133568 0
1.47678 0.0105159 0
1.48132 0.00689045 0
1.47605 0.00299971 0
1.45884 -0.000643607 0
1.42432 -0.00357404 0
1.36489 -0.00543815 0
1.27236 -0.00608554 0
1.13999 -0.00563243 0
0.963844 -0.00442738 0
0.742952 -0.00291564 0
0.478475 -0.00149223 0
0.172586 -0.000443852 0
-0.17579 0.000923211 0
0.175791 8.19976e-06 0
0.487809 0.000923247 0
0.757239 0.00328016 0
0.980552 0.00653212 0
1.15604 0.00995843 0
1.28547 0.0127845 0
1.3744 0.0143823 0
1.43095 0.0144319 0
1.4638 0.0129597 0
1.48028 0.010263 0
1.48508 0.00679263 0
1.47957 0.00305585 0
1.46167 -0.000444128 0
1.42612 -0.0032548 0
1.36551 -0.00504052 0
1.27193 -0.00566704 0
1.13883 -0.00525411 0
0.962385 -0.00413547 0
0.741579 -0.00272894 0
0.477463 -0.00140158 0
0.172158 -0.000419524 0
-0.174908 0.000881025 0
0.174909 7.82501e-06 0
0.485534 0.000881079 0
0.754099 0.00312553 0
0.977244 0.00622664 0
1.15331 0.0095089 0
1.28392 0.0122404 0
1.37435 0.0138175 0
1.43237 0.0139199 0
1.46641 0.0125558 0
1.48363 0.00999905 0
1.48869 0.00668134 0
1.48295 0.00309694 0
1.46438 -0.000261343 0
1.42784 -0.00295427 0
1.36612 -0.00466326 0
1.27153 -0.00526875 0
1.13775 -0.00489312 0
0.961028 -0.00385586 0
0.740298 -0.0025491 0
0.476516 -0.00131355 0
0.171753 -0.000395587 0
-0.174065 0.00084029 0
0.174066 7.46317e-06 0
0.483367 0.000840366 0
0.751106 0.00297513 0
0.974076 0.0059282 0
1.15067 0.00906763 0
1.2824 0.011703 0
1.37425 0.0132548 0
1.43369 0.0134041 0
1.46888 0.0121426 0
1.48684 0.00972202 0
1.49215 0.00655476 0
1.4862 0.00312148 0
1.46698 -9.63665e-05 0
1.42949 -0.0026731 0
1.3667 -0.00430651 0
1.27117 -0.0048905 0
1.13675 -0.00454926 0
0.959767 -0.00358853 0
0.739105 -0.0023763 0
0.47563 -0.00122837 0
0.171372 -0.000372132 0
-0.173262 0.000800666 0
0.173263 7.11123e-06 0
0.481307 0.000800769 0
0.748255 0.00282776 0
0.971045 0.00563457 0
1.14813 0.00863157 0
1.2809 0.0111687 0
1.37411 0.0126908 0
1.43491 0.0128814 0
1.47121 0.0117176 0
1.4899 0.00942963 0
1.49546 0.00641098 0
1.4893 0.00312785 0
1.46947 4.95406e-05 0
1.43107 -0.00241212 0
1.36727 -0.00397068 0
1.27084 -0.00453238 0
1.13582 -0.00422257 0
0.958597 -0.0033337 0
0.737997 -0.00221087 0
0.474804 -0.0011463 0
0.171013 -0.000349268 0
-0.172496 0.00076178 0
0.172497 6.76587e-06 0
0.47935 0.000761917 0
0.745545 0.00268217 0
0.968152 0.00534351 0
1.14568 0.00819768 0
1.27943 0.0106341 0
1.37392 0.0121222 0
1.43603 0.0123488 0
1.47342 0.011278 0