# vtk DataFile Version 3.0
vtk output
ASCII
DATASET UNSTRUCTURED_GRID
POINTS 1913 double
0.045977 0 0
0.045977 0.0952381 0
0.045977 0.142857 0
0.045977 0.190476 0
0.045977 0.238095 0
0.045977 0.285714 0
0.045977 0.333333 0
0.045977 0.380952 0
0.045977 0.428571 0
0.045977 0.47619 0
0.045977 0.52381 0
0.045977 0.571429 0
0.045977 0.619048 0
0.045977 0.666667 0
0.045977 0.714286 0
0.045977 0.761905 0
0.045977 0.809524 0
0.045977 0.857143 0
0.045977 0.904762 0
0.045977 0.952381 0
0.045977 1 0
0.091954 0 0
0.091954 0.047619 0
0.091954 0.0952381 0
0.091954 0.142857 0
0.091954 0.190476 0
0.091954 0.238095 0
0.091954 0.285714 0
0.091954 0.333333 0
0.091954 0.380952 0
0.091954 0.428571 0
0.091954 0.47619 0
0.091954 0.52381 0
0.091954 0.571429 0
0.091954 0.619048 0
0.091954 0.666667 0
0.091954 0.714286 0
0.091954 0.761905 0
0.091954 0.809524 0
0.091954 0.857143 0
0.091954 0.904762 0
0.091954 0.952381 0
0.091954 1 0
0.137931 0 0
0.137931 0.047619 0
0.137931 0.0952381 0
0.137931 0.142857 0
0.137931 0.190476 0
0.137931 0.238095 0
0.137931 0.285714 0
0.137931 0.333333 0
0.137931 0.380952 0
0.137931 0.428571 0
0.137931 0.47619 0
0.137931 0.52381 0
0.137931 0.571429 0
0.137931 0.619048 0
0.137931 0.666667 0
0.137931 0.714286 0
0.137931 0.761905 0
0.137931 0.809524 0
0.137931 0.857143 0
0.137931 0.904762 0
0.137931 0.952381 0
0.137931 1 0
0.183908 0 0
0.183908 0.047619 0
0.183908 0.0952381 0
0.183908 0.142857 0
0.183908 0.190476 0
0.183908 0.238095 0
0.183908 0.285714 0
0.183908 0.333333 0
0.183908 0.380952 0
0.183908 0.428571 0
0.183908 0.47619 0
0.183908 0.52381 0
0.183908 0.571429 0
0.183908 0.619048 0
0.183908 0.666667 0
0.183908 0.714286 0
0.183908 0.761905 0
0.183908 0.809524 0
0.183908 0.857143 0
0.183908 0.904762 0
0.183908 0.952381 0
0.183908 1 0
0.229885 0 0
0.229885 0.047619 0
0.229885 0.0952381 0
0.229885 0.142857 0
0.229885 0.190476 0
0.229885 0.238095 0
0.229885 0.285714 0
0.229885 0.333333 0
0.229885 0.380952 0
0.229885 0.428571 0
0.229885 0.47619 0
0.229885 0.52381 0
0.229885 0.571429 0
0.229885 0.619048 0
0.229885 0.666667 0
0.229885 0.714286 0
0.229885 0.761905 0
0.229885 0.809524 0
0.229885 0.857143 0
0.229885 0.904762 0
0.229885 0.952381 0
0.229885 1 0
0.275862 0 0
0.275862 0.047619 0
0.275862 0.0952381 0
0.275862 0.142857 0
0.275862 0.190476 0
0.275862 0.238095 0
0.275862 0.285714 0
0.275862 0.333333 0
0.275862 0.380952 0
0.275862 0.428571 0
0.275862 0.47619 0
0.275862 0.52381 0
0.275862 0.571429 0
0.275862 0.619048 0
0.275862 0.666667 0
0.275862 0.714286 0
0.275862 0.761905 0
0.275862 0.809524 0
0.275862 0.857143 0
0.275862 0.904762 0
0.275862 0.952381 0
0.275862 1 0
0.321839 0 0
0.321839 0.047619 0
0.321839 0.0952381 0
0.321839 0.142857 0
0.321839 0.190476 0
0.321839 0.238095 0
0.321839 0.285714 0
0.321839 0.333333 0
0.321839 0.380952 0
0.321839 0.428571 0
0.321839 0.47619 0
0.321839 0.52381 0
0.321839 0.571429 0
0.321839 0.619048 0
0.321839 0.666667 0
0.321839 0.714286 0
0.321839 0.761905 0
0.321839 0.809524 0
0.321839 0.857143 0
0.321839 0.904762 0
0.321839 0.952381 0
0.321839 1 0
0.367816 0 0
0.367816 0.047619 0
0.367816 0.0952381 0
0.367816 0.142857 0
0.367816 0.190476 0
0.367816 0.238095 0
0.367816 0.285714 0
0.367816 0.333333 0
0.367816 0.380952 0
0.367816 0.428571 0
0.367816 0.47619 0
0.367816 0.52381 0
0.367816 0.571429 0
0.367816 0.619048 0
0.367816 0.666667 0
0.367816 0.714286 0
0.367816 0.761905 0
0.367816 0.809524 0
0.367816 0.857143 0
0.367816 0.904762 0
0.367816 0.952381 0
0.367816 1 0
0.413793 0 0
0.413793 0.047619 0
0.413793 0.0952381 0
0.413793 0.142857 0
0.413793 0.190476 0
0.413793 0.238095 0
0.413793 0.285714 0
0.413793 0.333333 0
0.413793 0.380952 0
0.413793 0.428571 0
0.413793 0.47619 0
0.413793 0.52381 0
0.413793 0.571429 0
0.413793 0.619048 0
0.413793 0.666667 0
0.413793 0.714286 0
0.413793 0.761905 0
0.413793 0.809524 0
0.413793 0.857143 0
0.413793 0.904762 0
0.413793 0.952381 0
0.413793 1 0
0.45977 0 0
0.45977 0.047619 0
0.45977 0.0952381 0
0.45977 0.142857 0
0.45977 0.190476 0
0.45977 0.238095 0
0.45977 0.285714 0
0.45977 0.333333 0
0.45977 0.380952 0
0.45977 0.428571 0
0.45977 0.47619 0
0.45977 0.52381 0
0.45977 0.571429 0
0.45977 0.619048 0
0.45977 0.666667 0
0.45977 0.714286 0
0.45977 0.761905 0
0.45977 0.809524 0
0.45977 0.857143 0
0.45977 0.904762 0
0.45977 0.952381 0
0.45977 1 0
0.505747 0 0
0.505747 0.047619 0
0.505747 0.0952381 0
0.505747 0.142857 0
0.505747 0.190476 0
0.505747 0.238095 0
0.505747 0.285714 0
0.505747 0.333333 0
0.505747 0.380952 0
0.505747 0.428571 0
0.505747 0.47619 0
0.505747 0.52381 0
0.505747 0.571429 0
0.505747 0.619048 0
0.505747 0.666667 0
0.505747 0.714286 0
0.505747 0.761905 0
0.505747 0.809524 0
0.505747 0.857143 0
0.505747 0.904762 0
0.505747 0.952381 0
0.505747 1 0
0.551724 0 0
0.551724 0.047619 0
0.551724 0.0952381 0
0.551724 0.142857 0
0.551724 0.190476 0
0.551724 0.238095 0
0.551724 0.285714 0
0.551724 0.333333 0
0.551724 0.380952 0
0.551724 0.428571 0
0.551724 0.47619 0
0.551724 0.52381 0
0.551724 0.571429 0
0.551724 0.619048 0
0.551724 0.666667 0
0.551724 0.714286 0
0.551724 0.761905 0
0.551724 0.809524 0
0.551724 0.857143 0
0.551724 0.904762 0
0.551724 0.952381 0
0.551724 1 0
0.597701 0 0
0.597701 0.047619 0
0.597701 0.0952381 0
0.597701 0.142857 0
0.597701 0.190476 0
0.597701 0.238095 0
0.597701 0.285714 0
0.597701 0.333333 0
0.597701 0.380952 0
0.597701 0.428571 0
0.597701 0.47619 0
0.597701 0.52381 0
0.597701 0.571429 0
0.597701 0.619048 0
0.597701 0.666667 0
0.597701 0.714286 0
0.597701 0.761905 0
0.597701 0.809524 0
0.597701 0.857143 0
0.597701 0.904762 0
0.597701 0.952381 0
0.597701 1 0
0.643678 0 0
0.643678 0.047619 0
0.643678 0.0952381 0
0.643678 0.142857 0
0.643678 0.190476 0
0.643678 0.238095 0
0.643678 0.285714 0
0.643678 0.333333 0
0.643678 0.380952 0
0.643678 0.428571 0
0.643678 0.47619 0
0.643678 0.52381 0
0.643678 0.571429 0
0.643678 0.619048 0
0.643678 0.666667 0
0.643678 0.714286 0
0.643678 0.761905 0
0.643678 0.809524 0
0.643678 0.857143 0
0.643678 0.904762 0
0.643678 0.952381 0
0.643678 1 0
0.689655 0 0
0.689655 0.047619 0
0.689655 0.0952381 0
0.689655 0.142857 0
0.689655 0.190476 0
0.689655 0.238095 0
0.689655 0.285714 0
0.689655 0.333333 0
0.689655 0.380952 0
0.689655 0.428571 0
0.689655 0.47619 0
0.689655 0.52381 0
0.689655 0.571429 0
0.689655 0.619048 0
0.689655 0.666667 0
0.689655 0.714286 0
0.689655 0.761905 0
0.689655 0.809524 0
0.689655 0.857143 0
0.689655 0.904762 0
0.689655 0.952381 0
0.689655 1 0
0.735632 0 0
0.735632 0.047619 0
0.735632 0.0952381 0
0.735632 0.142857 0
0.735632 0.190476 0
0.735632 0.238095 0
0.735632 0.285714 0
0.735632 0.333333 0
0.735632 0.380952 0
0.735632 0.428571 0
0.735632 0.47619 0
0.735632 0.52381 0
0.735632 0.571429 0
0.735632 0.619048 0
0.735632 0.666667 0
0.735632 0.714286 0
0.735632 0.761905 0
0.735632 0.809524 0
0.735632 0.857143 0
0.735632 0.904762 0
0.735632 0.952381 0
0.735632 1 0
0.781609 0 0
0.781609 0.047619 0
0.781609 0.0952381 0
0.781609 0.142857 0
0.781609 0.190476 0
0.781609 0.238095 0
0.781609 0.285714 0
0.781609 0.333333 0
0.781609 0.380952 0
0.781609 0.428571 0
0.781609 0.47619 0
0.781609 0.52381 0
0.781609 0.571429 0
0.781609 0.619048 0
0.781609 0.666667 0
0.781609 0.714286 0
0.781609 0.761905 0
0.781609 0.809524 0
0.781609 0.857143 0
0.781609 0.904762 0
0.781609 0.952381 0
0.781609 1 0
0.827586 0 0
0.827586 0.047619 0
0.827586 0.0952381 0
0.827586 0.142857 0
0.827586 0.190476 0
0.827586 0.238095 0
0.827586 0.285714 0
0.827586 0.333333 0
0.827586 0.380952 0
0.827586 0.428571 0
0.827586 0.47619 0
0.827586 0.52381 0
0.827586 0.571429 0
0.827586 0.619048 0
0.827586 0.666667 0
0.827586 0.714286 0
0.827586 0.761905 0
0.827586 0.809524 0
0.827586 0.857143 0
0.827586 0.904762 0
0.827586 0.952381 0
0.827586 1 0
0.873563 0 0
0.873563 0.047619 0
0.873563 0.0952381 0
0.873563 0.142857 0
0.873563 0.190476 0
0.873563 0.238095 0
0.873563 0.285714 0
0.873563 0.333333 0
0.873563 0.380952 0
0.873563 0.428571 0
0.873563 0.47619 0
0.873563 0.52381 0
0.873563 0.571429 0
0.873563 0.619048 0
0.873563 0.666667 0
0.873563 0.714286 0
0.873563 0.761905 0
0.873563 0.809524 0
0.873563 0.857143 0
0.873563 0.904762 0
0.873563 0.952381 0
0.873563 1 0
0.91954 0 0
0.91954 0.047619 0
0.91954 0.0952381 0
0.91954 0.142857 0
0.91954 0.190476 0
0.91954 0.238095 0
0.91954 0.285714 0
0.91954 0.333333 0
0.91954 0.380952 0
0.91954 0.428571 0
0.91954 0.47619 0
0.91954 0.52381 0
0.91954 0.571429 0
0.91954 0.619048 0
0.91954 0.666667 0
0.91954 0.714286 0
0.91954 0.761905 0
0.91954 0.809524 0
0.91954 0.857143 0
0.91954 0.904762 0
0.91954 0.952381 0
0.91954 1 0
0.965517 0 0
0.965517 0.047619 0
0.965517 0.0952381 0
0.965517 0.142857 0
0.965517 0.190476 0
0.965517 0.238095 0
0.965517 0.285714 0
0.965517 0.333333 0
0.965517 0.380952 0
0.965517 0.428571 0
0.965517 0.47619 0
0.965517 0.52381 0
0.965517 0.571429 0
0.965517 0.619048 0
0.965517 0.666667 0
0.965517 0.714286 0
0.965517 0.761905 0
0.965517 0.809524 0
0.965517 0.857143 0
0.965517 0.904762 0
0.965517 0.952381 0
0.965517 1 0
1.01149 0 0
1.01149 0.047619 0
1.01149 0.0952381 0
1.01149 0.142857 0
1.01149 0.190476 0
1.01149 0.238095 0
1.01149 0.285714 0
1.01149 0.333333 0
1.01149 0.380952 0
1.01149 0.428571 0
1.01149 0.47619 0
1.01149 0.52381 0
1.01149 0.571429 0
1.01149 0.619048 0
1.01149 0.666667 0
1.01149 0.714286 0
1.01149 0.761905 0
1.01149 0.809524 0
1.01149 0.857143 0
1.01149 0.904762 0
1.01149 0.952381 0
1.01149 1 0
1.05747 0 0
1.05747 0.047619 0
1.05747 0.0952381 0
1.05747 0.142857 0
1.05747 0.190476 0
1.05747 0.238095 0
1.05747 0.285714 0
1.05747 0.333333 0
1.05747 0.380952 0
1.05747 0.428571 0
1.05747 0.47619 0
1.05747 0.52381 0
1.05747 0.571429 0
1.05747 0.619048 0
1.05747 0.666667 0
1.05747 0.714286 0
1.05747 0.761905 0
1.05747 0.809524 0
1.05747 0.857143 0
1.05747 0.904762 0
1.05747 0.952381 0
1.05747 1 0
1.10345 0 0
1.10345 0.047619 0
1.10345 0.0952381 0
1.10345 0.142857 0
1.10345 0.190476 0
1.10345 0.238095 0
1.10345 0.285714 0
1.10345 0.333333 0
1.10345 0.380952 0
1.10345 0.428571 0
1.10345 0.47619 0
1.10345 0.52381 0
1.10345 0.571429 0
[...]
POINT_DATA 1913
VECTORS velocity[m/s] double
-0 0.207525 0
0 0.207544 0
0 0.206222 0
0 0.177312 0
0 0.147229 0
0 0.119407 0
0 0.0939259 0
0 0.070357 0
0 0.0481859 0
0 0.0269017 0
0 0.00600694 0
0 -0.014999 0
0 -0.0366508 0
0 -0.059558 0
0 -0.0844608 0
0 -0.112308 0
0 -0.144366 0
0 -0.182361 0
0 -0.228285 0
0 -0.279916 0
0 -0.295515 0
-0.869675 0.183137 0
0.869674 0.00161527 0
1.07134 0.183155 0
1.09801 0.205128 0
1.09919 0.180015 0
1.09705 0.148805 0
1.09483 0.119993 0
1.09303 0.0940664 0
1.09171 0.0703379 0
1.09087 0.0481362 0
1.0905 0.0268848 0
1.09059 0.00605952 0
1.09119 -0.014852 0
1.09236 -0.0363899 0
1.09423 -0.0591693 0
1.09699 -0.0839461 0
1.10097 -0.11172 0
1.1066 -0.143889 0
1.11414 -0.182223 0
1.11953 -0.22677 0
1.08463 -0.263337 0
0.784173 -0.224949 0
-0.694463 0.14241 0
0.694445 0.00127586 0
1.05016 0.142428 0
1.12229 0.18531 0
1.12935 0.172865 0
1.1249 0.14547 0
1.1199 0.117588 0
1.11597 0.0921171 0
1.11317 0.068859 0
1.11142 0.047169 0
1.11063 0.0264562 0
1.11081 0.00620156 0
1.11202 -0.0140855 0
1.11438 -0.0349094 0
1.11818 -0.0568349 0
1.12384 -0.0805462 0
1.13206 -0.106921 0
1.14365 -0.137001 0
1.15718 -0.171121 0
1.15487 -0.204272 0
1.04761 -0.212163 0
0.567017 -0.139408 0
-0.558245 0.103166 0
0.558209 0.000923687 0
1.00879 0.103184 0
1.13434 0.156 0
1.15584 0.156897 0
1.15186 0.136564 0
1.14452 0.111767 0
1.13846 0.0879237 0
1.13415 0.0658718 0
1.13145 0.0452622 0
1.13022 0.02559 0
1.13043 0.00638859 0
1.13215 -0.012774 0
1.13559 -0.0323265 0
1.14111 -0.0527296 0
1.14934 -0.0745078 0
1.16114 -0.0982331 0
1.17662 -0.124195 0
1.18923 -0.150742 0
1.16253 -0.168985 0
0.977394 -0.154195 0
0.432452 -0.0781173 0
-0.459578 0.0712671 0
0.459524 0.000637553 0
0.957829 0.0712899 0
1.13351 0.124841 0
1.1755 0.135609 0
1.17583 0.122967 0
1.16758 0.102649 0
1.15978 0.0815023 0
1.15408 0.0613952 0
1.15047 0.0424246 0
1.14879 0.0242655 0
1.14897 0.0065544 0
1.15106 -0.0110462 0
1.15532 -0.0288554 0
1.16217 -0.0471889 0
1.17228 -0.0663512 0
1.18624 -0.0865153 0
1.20229 -0.10715 0
1.20688 -0.125097 0
1.14828 -0.130417 0
0.903976 -0.104495 0
0.357065 -0.0419465 0
-0.391433 0.04728 0
0.391358 0.000422735 0
0.906158 0.0473144 0
1.12314 0.0955824 0
1.18774 0.111904 0
1.19548 0.106004 0
1.18803 0.0907256 0
1.17923 0.0730655 0
1.17243 0.0555541 0
1.16804 0.0387255 0
1.16592 0.0224896 0
1.16599 0.00663023 0
1.16829 -0.00906471 0
1.17305 -0.0247806 0
1.1807 -0.0406661 0
1.19178 -0.0567856 0
1.2062 -0.0729238 0
1.21965 -0.0879216 0
1.21205 -0.0980028 0
1.12329 -0.0944837 0
0.84362 -0.0666167 0
0.316601 -0.0217334 0
-0.346242 0.02993 0
0.346133 0.000267572 0
0.859587 0.0299786 0
1.10742 0.0696599 0
1.19347 0.087804 0
1.21026 0.0870934 0
1.20511 0.0767904 0
1.19617 0.0630609 0
1.18871 0.0486182 0
1.18375 0.0343181 0
1.18127 0.0203133 0
1.18118 0.00656228 0
1.1835 -0.0070019 0
1.18842 -0.0204198 0
1.1963 -0.0336714 0
1.2074 -0.0466004 0
1.22071 -0.0586895 0
1.22942 -0.0684601 0
1.20869 -0.0723281 0
1.09642 -0.0640387 0
0.800322 -0.0395085 0
0.295654 -0.0103862 0
-0.317653 0.0176958 0
0.317497 0.000158266 0
0.821308 0.0177527 0
1.08993 0.0476757 0
1.19419 0.0649444 0
1.22024 0.0677832 0
1.2184 0.0619418 0
1.21014 0.0521904 0
1.20255 0.0410209 0
1.1973 0.029451 0
1.19458 0.0178413 0
1.19431 0.00632528 0
1.19648 -0.00501652 0
1.20125 -0.0160852 0
1.20882 -0.0267115 0
1.21911 -0.0365669 0
1.23018 -0.0449574 0
1.23319 -0.0503841 0
1.20072 -0.0499812 0
1.07277 -0.0401027 0
0.772241 -0.0210737 0
0.285664 -0.00397806 0
-0.300772 0.00936889 0
0.300561 8.38993e-05 0
0.792451 0.00942333 0
1.07329 0.0300384 0
1.19148 0.0447897 0
1.22592 0.0496645 0
1.22785 0.0474371 0
1.22096 0.0413128 0
1.21375 0.0333058 0
1.20854 0.0244419 0
1.20573 0.0152222 0
1.20529 0.00592682 0
1.2072 -0.003235 0
1.21154 -0.0120477 0
1.21836 -0.0202287 0
1.22724 -0.0273433 0
1.23546 -0.0326479 0
1.23284 -0.0348436 0
1.19122 -0.0319877 0
1.05444 -0.0226049 0
0.755772 -0.00926819 0
0.28186 -0.000475758 0
-0.291859 0.00403599 0
0.291595 3.62603e-05 0
0.772582 0.0040788 0
1.05909 0.0169138 0
1.18681 0.0284278 0
1.2281 0.034062 0
1.23379 0.034412 0
1.22872 0.0312512 0
1.22234 0.026015 0
1.21747 0.0196182 0
1.21473 0.0126216 0
1.21417 0.00540164 0
1.21574 -0.00174009 0
1.21947 -0.00850716 0
1.22527 -0.0145497 0
1.2324 -0.0193947 0
1.23761 -0.0223516 0
1.23012 -0.022435 0
1.1822 -0.0185759 0
1.0416 -0.0107803 0
0.747319 -0.00229611 0
0.281437 0.00125535 0
-0.288049 0.000930344 0
0.287744 8.49059e-06 0
0.760224 0.000957577 0
1.048 0.00802066 0
1.1814 0.0162933 0
1.2278 0.0217372 0
1.23688 0.0236226 0
1.23381 0.0226081 0
1.22855 0.0195739 0
1.22426 0.0152523 0
1.22174 0.0101891 0
1.22109 0.00479939 0
1.22231 -0.000568236 0
1.22534 -0.00557769 0
1.22998 -0.00985779 0
1.23528 -0.0129547 0
1.23772 -0.0142937 0
1.22643 -0.013221 0
1.1747 -0.00934422 0
1.03344 -0.00347876 0
0.743926 0.00136321 0
0.282685 0.00192575 0
-0.287211 -0.000631555 0
0.286879 -5.50367e-06 0
0.753439 -0.000618664 0
1.04005 0.00263355 0
1.17618 0.0081227 0
1.22601 0.0127992 0
1.23789 0.0153416 0
1.23677 0.0156743 0
1.23275 0.0142243 0
1.22918 0.0115188 0
1.22697 0.00803373 0
1.22631 0.00417146 0
1.22718 0.000284779 0
1.2295 -0.00328897 0
1.233 -0.0061955 0
1.23661 -0.00803838 0
1.23672 -0.00838268 0
1.22272 -0.00685846 0
1.16907 -0.00351101 0
1.0288 0.000547513 0
0.743417 0.00292588 0
0.284579 0.00200589 0
-0.287865 -0.00122846 0
0.287521 -1.08782e-05 0
0.750332 -0.00122586 0
1.03478 -0.000199743 0
1.1717 0.00316676 0
1.22358 0.00684238 0
1.2376 0.00942382 0
1.2382 0.0104478 0
1.23539 0.0100223 0
1.23257 0.00848468 0
1.23073 0.00621308 0
1.23009 0.00356114 0
1.23066 0.000852817 0
1.23234 -0.0016025 0
1.23481 -0.00349309 0
1.23697 -0.00449815 0
1.23528 -0.00431576 0
1.21952 -0.00278388 0
1.16519 -0.000174401 0
1.02654 0.00242116 0
0.744338 0.00328869 0
0.286548 0.00180017 0
-0.289089 -0.00129835 0
0.288742 -1.1537e-05 0
0.749373 -0.0013016 0
1.03156 -0.00139942 0
1.16818 0.000503905 0
1.22112 0.00319658 0
1.23664 0.00546764 0
1.23864 0.00672303 0
1.23691 0.00688112 0
1.2348 0.00612716 0
1.23332 0.00473738 0
1.23273 0.00299873 0
1.23306 0.00118648 0
1.23419 -0.00043547 0
1.23581 -0.00161053 0
1.23683 -0.00209528 0
1.23383 -0.0016971 0
1.21703 -0.000385108 0
1.16271 0.00149294 0
1.02573 0.00301893 0
0.745807 0.00305322 0
0.288318 0.00149111 0
-0.290378 -0.00113144 0
0.290033 -1.00702e-05 0
0.749498 -0.00113707 0
1.02976 -0.00168885 0
1.16561 -0.000707044 0
1.21896 0.00115878 0
1.23546 0.00298363 0
1.23852 0.00419791 0
1.23766 0.00463209 0
1.23617 0.00436469 0
1.23503 0.00358183 0
1.23451 0.00250103 0
1.23465 0.00134148 0
1.23536 0.000314974 0
1.23631 -0.000378892 0
1.23647 -0.000565361 0
1.2326 -0.000132048 0
1.21525 0.000882358 0
1.16127 0.00214314 0
1.02573 0.00294809 0
0.747346 0.00258301 0
0.289788 0.00117627 0
-0.291506 -0.000894161 0
0.291166 -7.966e-06 0
0.75006 -0.00090005 0
1.02884 -0.00155082 0
1.16384 -0.00110223 0
1.21723 0.000136947 0
1.23431 0.00151561 0
1.23813 0.00256003 0
1.23795 0.00308013 0
1.23695 0.00308877 0
1.2361 0.00270154 0
1.23566 0.00207366 0
1.23567 0.00137018 0
1.23606 0.000752316 0
1.23651 0.000367907 0
1.23608 0.00033643 0
1.23165 0.000716765 0
1.21406 0.00144259 0
1.16052 0.00223307 0
1.02611 0.00258527 0
0.748734 0.00207291 0
0.290954 0.000899389 0
-0.292404 -0.000666869 0
0.29207 -5.94475e-06 0
0.750717 -0.000672001 0
1.02843 -0.00126335 0
1.16267 -0.00109787 0
1.21592 -0.000298972 0
1.23333 0.000700086 0
1.23765 0.0015382 0
1.23797 0.00204143 0
1.23735 0.00218836 0
1.23673 0.00204443 0
1.23637 0.00171448 0
1.2363 0.00131674 0
1.23646 0.000968327 0
1.23657 0.000774057 0
1.23574 0.000812077 0
1.23097 0.00110864 0
1.21332 0.00159418 0
1.16021 0.00205218 0
1.02663 0.00213922 0
0.749895 0.00161174 0
0.29185 0.000673764 0
-0.293084 -0.000479143 0
0.292754 -4.27308e-06 0
0.751316 -0.00048321 0
1.0283 -0.000963396 0
1.16193 -0.000933882 0
1.21499 -0.000427552 0
1.23255 0.000277819 0
1.23719 0.000922268 0
1.23785 0.00136288 0
1.23752 0.00156464 0
1.23708 0.00156024 0
1.23678 0.00141685 0
1.23666 0.00121538 0
1.23667 0.00103734 0
1.23656 0.000954122 0
1.23548 0.00101473 0
1.23053 0.00122728 0
1.21291 0.00153069 0
1.16016 0.00176743 0
1.02717 0.00171125 0
0.750828 0.00122926 0
0.292528 0.000497809 0
-0.293582 -0.000335244 0
0.293256 -2.99068e-06 0
0.751806 -0.000338296 0
1.0283 -0.000705349 0
1.16146 -0.000732095 0
1.21433 -0.000412575 0
1.23196 7.89608e-05 0
1.2368 0.000562213 0
1.23769 0.000927297 0
1.23755 0.00113737 0
1.23724 0.00120545 0
1.237 0.00117225 0
1.23686 0.00109074 0
1.23678 0.0010154 0
1.23653 0.000993026 0
1.23531 0.00105303 0
1.23027 0.00119453 0
1.21271 0.00136887 0
1.16024 0.00146609 0
1.02766 0.00134133 0
0.751561 0.000926445 0
0.293035 0.000364093 0
-0.293942 -0.000229307 0
0.293618 -2.04617e-06 0
0.752186 -0.000231533 0
1.02835 -0.000502119 0
1.16118 -0.000545452 0
1.21388 -0.000342113 0
1.23151 -3.91709e-07 0
1.23647 0.000357465 0
1.23751 0.000650482 0
1.23751 0.000845637 0
1.2373 0.000945085 0
1.2371 0.000971933 0
1.23696 0.000959352 0
1.23682 0.00094227 0
1.2365 0.000950185 0
1.23519 0.000999883 0
1.23012 0.00108676 0
1.21264 0.00117435 0
1.16038 0.00118834 0
1.02809 0.00103826 0
0.752129 0.000692822 0
0.293412 0.000263987 0
-0.294199 -0.000152992 0
0.293877 -1.3656e-06 0
0.752472 -0.000154601 0
1.02842 -0.000349262 0
1.16101 -0.000391405 0
1.21358 -0.000259305 0
1.23119 -2.02534e-05 0
1.23621 0.000243817 0
1.23735 0.000474788 0
1.23744 0.000645401 0
1.2373 0.000752454 0
1.23714 0.00080791 0
1.237 0.000831485 0
1.23684 0.000844606 0
1.23648 0.000865064 0
1.23514 0.000901808 0
1.23006 0.000949275 0
1.21265 0.000981297 0
1.16055 0.000948949 0
1.02845 0.00079714 0
0.752568 0.0005151 0
0.293692 0.000189665 0
-0.294381 -9.86432e-05 0
0.294061 -8.80856e-07 0
0.752684 -9.98192e-05 0
1.02848 -0.000237129 0
1.16091 -0.000271424 0
1.21337 -0.000182878 0
1.23096 -1.35391e-05 0
1.23601 0.000181855 0
1.2372 0.000362208 0
1.23736 0.000506053 0
1.23727 0.000608009 0
1.23714 0.000673317 0
1.23701 0.000712928 0
1.23685 0.000739296 0
1.23646 0.000762575 0
1.23511 0.000787032 0
1.23006 0.00080744 0
1.2127 0.000805615 0
1.16072 0.0007501 0
1.02874 0.000608429 0
0.752906 0.000380897 0
0.293899 0.000134738 0
-0.294511 -6.01986e-05 0
0.294191 -5.37934e-07 0
0.75284 -6.10845e-05 0
1.02854 -0.000156027 0
1.16084 -0.000181039 0
1.21323 -0.000119326 0
1.2308 2.63457e-06 0
1.23586 0.000148178 0
1.23709 0.000288427 0
1.23728 0.000406928 0
1.23723 0.00049782 0
1.23713 0.0005625 0
1.23701 0.000606438 0
1.23685 0.000636346 0
1.23646 0.000657572 0
1.23512 0.000671709 0
1.23008 0.00067435 0
1.21278 0.000653192 0
1.16088 0.000588514 0
1.02899 0.000462103 0
0.753166 0.000279936 0
0.294052 9.4256e-05 0
-0.294602 -3.31631e-05 0
0.294283 -2.96764e-07 0
0.752954 -3.3859e-05 0
1.02858 -9.79101e-05 0
1.16081 -0.00011441 0
1.21314 -6.95307e-05 0
1.23068 1.99481e-05 0
1.23575 0.000129311 0
1.237 0.000238269 0
1.23722 0.000334389 0
1.23719 0.000412153 0
1.23711 0.000470909 0
1.237 0.000512852 0
1.23685 0.000541158 0
1.23647 0.000558269 0
1.23514 0.000564341 0
1.23012 0.000555879 0
1.21286 0.00052476 0
1.16103 0.000459006 0
1.02918 0.000349266 0
0.753368 0.000204144 0
0.294165 6.4488e-05 0
-0.294666 -1.42943e-05 0
0.294347 -1.28429e-07 0
0.753037 -1.4862e-05 0
1.02862 -5.66017e-05 0
1.16079 -6.61153e-05 0
1.21307 -3.20993e-05 0
1.23059 3.47884e-05 0
1.23566 0.000117747 0
1.23693 0.000202457 0
1.23716 0.000279583 0
1.23716 0.000344279 0
1.23709 0.000394927 0
1.23699 0.000431865 0
1.23685 0.000456195 0
1.23649 0.000468684 0
1.23517 0.000468782 0
1.23017 0.000453833 0
1.21295 0.000418608 0
1.16115 0.000356165 0
1.02934 0.000262568 0
0.753523 0.000147339 0
0.294248 4.26577e-05 0
-0.294711 -1.26954e-06 0
0.294392 -1.22157e-08 0
0.753098 -1.74217e-06 0
1.02865 -2.75119e-05 0
1.16077 -3.16661e-05 0
1.21303 -4.93195e-06 0
1.23053 4.59559e-05 0
1.2356 0.00010947 0
1.23687 0.000175428 0
1.23712 0.000236824 0
1.23713 0.000289566 0
1.23707 0.00033169 0
1.23699 0.000362562 0
1.23686 0.000382141 0
1.23651 0.000390289 0
1.2352 0.000386179 0
1.23023 0.000367849 0
1.21303 0.000332045 0
1.16126 0.000275045 0
1.02948 0.000196147 0
0.753644 0.000104846 0
0.294309 2.67104e-05 0
-0.294742 7.57883e-06 0
0.294422 6.67484e-08 0
0.753142 7.18628e-06 0
1.02867 -7.27534e-06 0
1.16077 -7.53395e-06 0
1.213 1.40927e-05 0
1.23049 5.34182e-05 0
1.23556 0.000102458 0
1.23683 0.000153904 0
1.23709 0.00020248 0
1.23711 0.000244813 0
1.23706 0.000278925 0
1.23699 0.000303746 0
1.23687 0.000318664 0
1.23653 0.000323105 0
1.23524 0.000316193 0
1.23028 0.000296519 0
1.2131 0.000262152 0
1.16136 0.000211395 0
1.02958 0.000145399 0
0.753739 7.3144e-05 0
0.294354 1.51273e-05 0
-0.294762 1.34524e-05 0
0.294442 1.1918e-07 0
0.753174 1.31326e-05 0
1.02869 6.56504e-06 0
1.16076 8.98817e-06 0
1.21298 2.68533e-05 0
1.23046 5.76484e-05 0
1.23553 9.57928e-05 0
1.2368 0.000135982 0
1.23707 0.000174226 0
1.23709 0.000207778 0
1.23705 0.000234818 0
1.237 0.000254144 0
1.23689 0.00026491 0
1.23656 0.00026638 0
1.23527 0.000257747 0
1.23033 0.000238023 0
1.21317 0.000206153 0
1.16144 0.000161681 0
1.02967 0.000106744 0
0.753813 4.95828e-05 0
0.294387 6.78437e-06 0
-0.294775 1.72166e-05 0
0.294456 1.52795e-07 0
0.753198 1.69625e-05 0
1.02871 1.58e-05 0
1.16076 1.9948e-05 0
1.21296 3.49105e-05 0
1.23044 5.92858e-05 0
1.2355 8.91394e-05 0
1.23678 0.000120577 0
1.23705 0.000150557 0
1.23708 0.000176867 0
1.23705 0.00019791 0
1.237 0.000212519 0
1.2369 0.000219801 0
1.23658 0.000219013 0
1.23531 0.00020946 0
1.23038 0.000190476 0
1.21323 0.000161569 0
1.16151 0.000123016 0
1.02974 7.74107e-05 0
0.753872 3.21668e-05 0
0.29441 8.48609e-07 0
-0.294784 1.94908e-05 0
0.294464 1.7312e-07 0
0.753215 1.92932e-05 0
1.02872 2.17323e-05 0
1.16077 2.68805e-05 0
1.21296 3.95129e-05 0
1.23043 5.89689e-05 0
1.23549 8.24525e-05 0
1.23677 0.000107068 0
1.23704 0.00013048 0
1.23708 0.000150915 0
1.23706 0.000167016 0
1.23701 0.000177728 0
1.23692 0.000182214 0
1.23661 0.000179794 0
1.23534 0.0001699 0
1.23043 0.000152104 0
1.21328 0.000126269 0
1.16157 9.30775e-05 0
1.0298 5.52547e-05 0
0.753919 1.93922e-05 0
0.294428 -3.29803e-06 0
-0.294788 2.07151e-05 0
0.294469 1.8408e-07 0
0.753229 2.05628e-05 0
1.02873 2.53083e-05 0
1.16077 3.09277e-05 0
1.21295 4.16339e-05 0
1.23042 5.72627e-05 0
1.23548 7.58117e-05 0
1.23676 9.50996e-05 0
1.23704 0.000113319 0
1.23708 0.000129051 0
1.23706 0.000141166 0
1.23702 0.000148752 0
1.23694 0.000151072 0
1.23663 0.00014754 0
1.23538 0.000137712 0
1.23047 0.000121327 0
1.21333 9.84661e-05 0
1.16162 7.00101e-05 0
1.02985 3.86238e-05 0
0.753956 1.01248e-05 0
0.29444 -6.11455e-06 0
-0.294791 2.12002e-05 0
0.294471 1.88446e-07 0
0.753239 2.1082e-05 0
1.02874 2.72141e-05 0
1.16077 3.2934e-05 0
1.21295 4.20181e-05 0
1.23042 5.46333e-05 0
1.23548 6.93359e-05 0
1.23676 8.44597e-05 0
1.23704 9.85934e-05 0
1.23708 0.000110602 0
1.23707 0.000119559 0
1.23704 0.000124699 0
1.23696 0.000125398 0
1.23666 0.00012117 0
1.23541 0.000111679 0
1.2305 9.67832e-05 0
1.21337 7.66883e-05 0
1.16167 5.23424e-05 0
1.0299 2.62457e-05 0
0.753987 3.50921e-06 0
0.29445 -7.94182e-06 0
-0.294792 2.11654e-05 0
0.294472 1.88173e-07 0
0.753247 2.10721e-05 0
1.02875 2.79469e-05 0
1.16078 3.35205e-05 0
1.21296 4.12255e-05 0
1.23042 5.14482e-05 0
1.23548 6.314e-05 0
1.23676 7.50099e-05 0
1.23704 8.59447e-05 0
1.23709 9.50369e-05 0
1.23708 0.000101532 0
1.23705 0.000104801 0
1.23697 0.000104329 0
1.23668 9.97264e-05 0
1.23544 9.07448e-05 0
1.23054 7.73251e-05 0
1.21341 5.97357e-05 0
1.16171 3.89139e-05 0
1.02993 1.71428e-05 0
0.754013 -1.0991e-06 0
0.294456 -9.03283e-06 0
-0.294792 2.07666e-05 0
0.294472 1.84654e-07 0
0.753254 2.0692e-05 0
1.02876 2.78667e-05 0
1.16078 3.31411e-05 0
1.21296 3.96716e-05 0
1.23042 4.79863e-05 0
1.23548 5.73174e-05 0
1.23676 6.66491e-05 0
1.23705 7.50944e-05 0
1.23709 8.19252e-05 0
1.23709 8.6532e-05 0
1.23706 8.84027e-05 0
1.23699 8.71228e-05 0
1.2367 8.23857e-05 0
1.23546 7.40132e-05 0
1.23057 6.20013e-05 0
1.21345 4.66413e-05 0
1.16174 2.88144e-05 0
1.02996 1.05657e-05 0
0.754034 -4.18537e-06 0
0.294461 -9.57511e-06 0
-0.294791 2.01157e-05 0
0.294471 1.78885e-07 0
0.75326 2.0056e-05 0
1.02877 2.72334e-05 0
1.16079 3.21254e-05 0
1.21296 3.766e-05 0
1.23043 4.44524e-05 0
1.23548 5.19348e-05 0
1.23677 5.92945e-05 0
1.23705 6.58167e-05 0
1.2371 7.09148e-05 0
1.2371 7.40975e-05 0
1.23708 7.49527e-05 0
1.23701 7.31501e-05 0
1.23672 6.84526e-05 0
1.23549 6.0737e-05 0
1.2306 5.0034e-05 0
1.21348 3.66324e-05 0
1.16177 2.13329e-05 0
1.02999 5.94146e-06 0
0.754052 -6.11405e-06 0
0.294465 -9.70727e-06 0
-0.29479 1.92936e-05 0
0.294471 1.71588e-07 0
0.753265 1.92468e-05 0
1.02877 2.62342e-05 0
1.1608 3.07105e-05 0
1.21297 3.54088e-05 0
1.23043 4.09918e-05 0
1.23549 4.70332e-05 0
1.23678 5.28716e-05 0
1.23706 5.79234e-05 0
1.23711 6.17131e-05 0
1.23711 6.38448e-05 0
1.23709 6.39884e-05 0
1.23703 6.1883e-05 0
1.23674 5.73481e-05 0
1.23551 5.03014e-05 0
1.23062 4.07934e-05 0
1.2135 2.90956e-05 0
1.1618 1.59171e-05 0
1.03002 2.83356e-06 0
0.754068 -7.15791e-06 0
0.294468 -9.53136e-06 0
-0.29479 1.83586e-05 0
0.29447 1.63284e-07 0
0.75327 1.83236e-05 0
1.02878 2.50024e-05 0
1.16081 2.90651e-05 0
1.21298 3.30717e-05 0
1.23044 3.7703e-05 0
1.2355 4.26324e-05 0
1.23678 4.73106e-05 0
1.23707 5.12546e-05 0
1.23712 5.40758e-05 0
1.23712 5.54542e-05 0
1.23711 5.51256e-05 0
1.23704 5.2885e-05 0
1.23676 4.85959e-05 0
1.23553 4.22059e-05 0
1.23064 3.37751e-05 0
1.21353 2.35485e-05 0
1.16183 1.21405e-05 0
1.03004 9.11334e-07 0
0.754082 -7.52004e-06 0
0.294471 -9.12202e-06 0
-0.294789 1.73523e-05 0
0.294469 1.54342e-07 0
0.753275 1.73284e-05 0
1.02879 2.36319e-05 0
1.16081 2.73068e-05 0
1.21298 3.07537e-05 0
1.23045 3.46492e-05 0
1.2355 3.87348e-05 0
1.23679 4.25447e-05 0
1.23708 4.5673e-05 0
1.23713 4.77986e-05 0
1.23713 4.86609e-05 0
1.23712 4.8048e-05 0
1.23706 4.57982e-05 0
1.23678 4.18089e-05 0
1.23555 3.60485e-05 0
1.23067 2.85789e-05 0
1.21355 1.96144e-05 0
1.16185 9.67635e-06 0
1.03006 -7.38122e-08 0
0.754095 -7.35029e-06 0
0.294473 -8.53326e-06 0
-0.294788 1.63037e-05 0
0.294468 1.45022e-07 0
0.753279 1.62899e-05 0
1.02879 2.21877e-05 0
1.16082 2.55162e-05 0
1.21299 2.85243e-05 0
1.23045 3.18672e-05 0
1.23551 3.53308e-05 0
1.2368 3.8511e-05 0
1.23709 4.10606e-05 0
1.23714 4.27107e-05 0
1.23715 4.32468e-05 0
1.23713 4.24969e-05 0
1.23707 4.03328e-05 0
1.2368 3.66764e-05 0
1.23557 3.15096e-05 0
1.23068 2.48914e-05 0
1.21357 1.70031e-05 0
1.16187 8.27741e-06 0
1.03007 -3.06479e-07 0
0.754107 -6.75769e-06 0
0.294476 -7.80343e-06 0
-0.294787 1.52323e-05 0
0.294467 1.35498e-07 0
0.753283 1.52277e-05 0
1.0288 2.07134e-05 0
1.16083 2.37462e-05 0
1.213 2.64267e-05 0
1.23046 2.93746e-05 0
1.23552 3.24021e-05 0
1.2368 3.51501e-05 0
1.23709 3.7316e-05 0
1.23715 3.86704e-05 0
1.23716 3.90336e-05 0
1.23714 3.82638e-05 0
1.23709 3.62571e-05 0
1.23681 3.29524e-05 0
1.23559 2.83397e-05 0
1.2307 2.24709e-05 0
1.21359 1.54945e-05 0
1.16189 7.75966e-06 0
1.03009 7.90385e-08 0
0.754118 -5.81955e-06 0
0.294478 -6.95892e-06 0
-0.294786 1.41506e-05 0
0.294466 1.25883e-07 0
0.753287 1.4154e-05 0
1.02881 1.92371e-05 0
1.16083 2.20297e-05 0
1.213 2.44848e-05 0
1.23046 2.71752e-05 0
1.23552 2.9925e-05 0
1.23681 3.24074e-05 0
1.2371 3.43526e-05 0
1.23716 3.55606e-05 0
1.23717 3.58775e-05 0
1.23716 3.51828e-05 0
1.2371 3.33891e-05 0
1.23682 3.04465e-05 0
1.2356 2.63478e-05 0
1.23072 2.11357e-05 0
1.21361 1.49261e-05 0
1.1619 7.99036e-06 0
1.03011 9.88507e-07 0
0.754128 -4.58829e-06 0
0.294481 -6.01679e-06 0
-0.294785 1.30661e-05 0
0.294466 1.16241e-07 0
0.753291 1.30762e-05 0
1.02881 1.77755e-05 0
1.16084 2.0385e-05 0
1.21301 2.27088e-05 0
1.23047 2.5263e-05 0
1.23553 2.78728e-05 0
1.23682 3.02327e-05 0
1.23711 3.20968e-05 0
1.23717 3.32863e-05 0
1.23718 3.36644e-05 0
1.23717 3.31248e-05 0
1.23711 3.159e-05 0
1.23684 2.90156e-05 0
1.23561 2.53933e-05 0
1.23073 2.07545e-05 0
1.21362 1.51833e-05 0
1.16192 8.87887e-06 0
1.03012 2.36027e-06 0
0.754138 -3.09621e-06 0
0.294483 -4.98664e-06 0
-0.294785 1.19821e-05 0
0.294465 1.06604e-07 0
0.753295 1.19979e-05 0
1.02882 1.63366e-05 0
1.16085 1.8819e-05 0