# vtk DataFile Version 3.0
vtk output
ASCII
DATASET UNSTRUCTURED_GRID
POINTS 1913 double
0.045977 0 0
0.045977 0.0952381 0
0.045977 0.142857 0
0.045977 0.190476 0
0.045977 0.238095 0
0.045977 0.285714 0
0.045977 0.333333 0
0.045977 0.380952 0
0.045977 0.428571 0
0.045977 0.47619 0
0.045977 0.52381 0
0.045977 0.571429 0
0.045977 0.619048 0
0.045977 0.666667 0
0.045977 0.714286 0
0.045977 0.761905 0
0.045977 0.809524 0
0.045977 0.857143 0
0.045977 0.904762 0
0.045977 0.952381 0
0.045977 1 0
0.091954 0 0
0.091954 0.047619 0
0.091954 0.0952381 0
0.091954 0.142857 0
0.091954 0.190476 0
0.091954 0.238095 0
0.091954 0.285714 0
0.091954 0.333333 0
0.091954 0.380952 0
0.091954 0.428571 0
0.091954 0.47619 0
0.091954 0.52381 0
0.091954 0.571429 0
0.091954 0.619048 0
0.091954 0.666667 0
0.091954 0.714286 0
0.091954 0.761905 0
0.091954 0.809524 0
0.091954 0.857143 0
0.091954 0.904762 0
0.091954 0.952381 0
0.091954 1 0
0.137931 0 0
0.137931 0.047619 0
0.137931 0.0952381 0
0.137931 0.142857 0
0.137931 0.190476 0
0.137931 0.238095 0
0.137931 0.285714 0
0.137931 0.333333 0
0.137931 0.380952 0
0.137931 0.428571 0
0.137931 0.47619 0
0.137931 0.52381 0
0.137931 0.571429 0
0.137931 0.619048 0
0.137931 0.666667 0
0.137931 0.714286 0
0.137931 0.761905 0
0.137931 0.809524 0
0.137931 0.857143 0
0.137931 0.904762 0
0.137931 0.952381 0
0.137931 1 0
0.183908 0 0
0.183908 0.047619 0
0.183908 0.0952381 0
0.183908 0.142857 0
0.183908 0.190476 0
0.183908 0.238095 0
0.183908 0.285714 0
0.183908 0.333333 0
0.183908 0.380952 0
0.183908 0.428571 0
0.183908 0.47619 0
0.183908 0.52381 0
0.183908 0.571429 0
0.183908 0.619048 0
0.183908 0.666667 0
0.183908 0.714286 0
0.183908 0.761905 0
0.183908 0.809524 0
0.183908 0.857143 0
0.183908 0.904762 0
0.183908 0.952381 0
0.183908 1 0
0.229885 0 0
0.229885 0.047619 0
0.229885 0.0952381 0
0.229885 0.142857 0
0.229885 0.190476 0
0.229885 0.238095 0
0.229885 0.285714 0
0.229885 0.333333 0
0.229885 0.380952 0
0.229885 0.428571 0
0.229885 0.47619 0
0.229885 0.52381 0
0.229885 0.571429 0
0.229885 0.619048 0
0.229885 0.666667 0
0.229885 0.714286 0
0.229885 0.761905 0
0.229885 0.809524 0
0.229885 0.857143 0
0.229885 0.904762 0
0.229885 0.952381 0
0.229885 1 0
0.275862 0 0
0.275862 0.047619 0
0.275862 0.0952381 0
0.275862 0.142857 0
0.275862 0.190476 0
0.275862 0.238095 0
0.275862 0.285714 0
0.275862 0.333333 0
0.275862 0.380952 0
0.275862 0.428571 0
0.275862 0.47619 0
0.275862 0.52381 0
0.275862 0.571429 0
0.275862 0.619048 0
0.275862 0.666667 0
0.275862 0.714286 0
0.275862 0.761905 0
0.275862 0.809524 0
0.275862 0.857143 0
0.275862 0.904762 0
0.275862 0.952381 0
0.275862 1 0
0.321839 0 0
0.321839 0.047619 0
0.321839 0.0952381 0
0.321839 0.142857 0
0.321839 0.190476 0
0.321839 0.238095 0
0.321839 0.285714 0
0.321839 0.333333 0
0.321839 0.380952 0
0.321839 0.428571 0
0.321839 0.47619 0
0.321839 0.52381 0
0.321839 0.571429 0
0.321839 0.619048 0
0.321839 0.666667 0
0.321839 0.714286 0
0.321839 0.761905 0
0.321839 0.809524 0
0.321839 0.857143 0
0.321839 0.904762 0
0.321839 0.952381 0
0.321839 1 0
0.367816 0 0
0.367816 0.047619 0
0.367816 0.0952381 0
0.367816 0.142857 0
0.367816 0.190476 0
0.367816 0.238095 0
0.367816 0.285714 0
0.367816 0.333333 0
0.367816 0.380952 0
0.367816 0.428571 0
0.367816 0.47619 0
0.367816 0.52381 0
0.367816 0.571429 0
0.367816 0.619048 0
0.367816 0.666667 0
0.367816 0.714286 0
0.367816 0.761905 0
0.367816 0.809524 0
0.367816 0.857143 0
0.367816 0.904762 0
0.367816 0.952381 0
0.367816 1 0
0.413793 0 0
0.413793 0.047619 0
0.413793 0.0952381 0
0.413793 0.142857 0
0.413793 0.190476 0
0.413793 0.238095 0
0.413793 0.285714 0
0.413793 0.333333 0
0.413793 0.380952 0
0.413793 0.428571 0
0.413793 0.47619 0
0.413793 0.52381 0
0.413793 0.571429 0
0.413793 0.619048 0
0.413793 0.666667 0
0.413793 0.714286 0
0.413793 0.761905 0
0.413793 0.809524 0
0.413793 0.857143 0
0.413793 0.904762 0
0.413793 0.952381 0
0.413793 1 0
0.45977 0 0
0.45977 0.047619 0
0.45977 0.0952381 0
0.45977 0.142857 0
0.45977 0.190476 0
0.45977 0.238095 0
0.45977 0.285714 0
0.45977 0.333333 0
0.45977 0.380952 0
0.45977 0.428571 0
0.45977 0.47619 0
0.45977 0.52381 0
0.45977 0.571429 0
0.45977 0.619048 0
0.45977 0.666667 0
0.45977 0.714286 0
0.45977 0.761905 0
0.45977 0.809524 0
0.45977 0.857143 0
0.45977 0.904762 0
0.45977 0.952381 0
0.45977 1 0
0.505747 0 0
0.505747 0.047619 0
0.505747 0.0952381 0
0.505747 0.142857 0
0.505747 0.190476 0
0.505747 0.238095 0
0.505747 0.285714 0
0.505747 0.333333 0
0.505747 0.380952 0
0.505747 0.428571 0
0.505747 0.47619 0
0.505747 0.52381 0
0.505747 0.571429 0
0.505747 0.619048 0
0.505747 0.666667 0
0.505747 0.714286 0
0.505747 0.761905 0
0.505747 0.809524 0
0.505747 0.857143 0
0.505747 0.904762 0
0.505747 0.952381 0
0.505747 1 0
0.551724 0 0
0.551724 0.047619 0
0.551724 0.0952381 0
0.551724 0.142857 0
0.551724 0.190476 0
0.551724 0.238095 0
0.551724 0.285714 0
0.551724 0.333333 0
0.551724 0.380952 0
0.551724 0.428571 0
0.551724 0.47619 0
0.551724 0.52381 0
0.551724 0.571429 0
0.551724 0.619048 0
0.551724 0.666667 0
0.551724 0.714286 0
0.551724 0.761905 0
0.551724 0.809524 0
0.551724 0.857143 0
0.551724 0.904762 0
0.551724 0.952381 0
0.551724 1 0
0.597701 0 0
0.597701 0.047619 0
0.597701 0.0952381 0
0.597701 0.142857 0
0.597701 0.190476 0
0.597701 0.238095 0
0.597701 0.285714 0
0.597701 0.333333 0
0.597701 0.380952 0
0.597701 0.428571 0
0.597701 0.47619 0
0.597701 0.52381 0
0.597701 0.571429 0
0.597701 0.619048 0
0.597701 0.666667 0
0.597701 0.714286 0
0.597701 0.761905 0
0.597701 0.809524 0
0.597701 0.857143 0
0.597701 0.904762 0
0.597701 0.952381 0
0.597701 1 0
0.643678 0 0
0.643678 0.047619 0
0.643678 0.0952381 0
0.643678 0.142857 0
0.643678 0.190476 0
0.643678 0.238095 0
0.643678 0.285714 0
0.643678 0.333333 0
0.643678 0.380952 0
0.643678 0.428571 0
0.643678 0.47619 0
0.643678 0.52381 0
0.643678 0.571429 0
0.643678 0.619048 0
0.643678 0.666667 0
0.643678 0.714286 0
0.643678 0.761905 0
0.643678 0.809524 0
0.643678 0.857143 0
0.643678 0.904762 0
0.643678 0.952381 0
0.643678 1 0
0.689655 0 0
0.689655 0.047619 0
0.689655 0.0952381 0
0.689655 0.142857 0
0.689655 0.190476 0
0.689655 0.238095 0
0.689655 0.285714 0
0.689655 0.333333 0
0.689655 0.380952 0
0.689655 0.428571 0
0.689655 0.47619 0
0.689655 0.52381 0
0.689655 0.571429 0
0.689655 0.619048 0
0.689655 0.666667 0
0.689655 0.714286 0
0.689655 0.761905 0
0.689655 0.809524 0
0.689655 0.857143 0
0.689655 0.904762 0
0.689655 0.952381 0
0.689655 1 0
0.735632 0 0
0.735632 0.047619 0
0.735632 0.0952381 0
0.735632 0.142857 0
0.735632 0.190476 0
0.735632 0.238095 0
0.735632 0.285714 0
0.735632 0.333333 0
0.735632 0.380952 0
0.735632 0.428571 0
0.735632 0.47619 0
0.735632 0.52381 0
0.735632 0.571429 0
0.735632 0.619048 0
0.735632 0.666667 0
0.735632 0.714286 0
0.735632 0.761905 0
0.735632 0.809524 0
0.735632 0.857143 0
0.735632 0.904762 0
0.735632 0.952381 0
0.735632 1 0
0.781609 0 0
0.781609 0.047619 0
0.781609 0.0952381 0
0.781609 0.142857 0
0.781609 0.190476 0
0.781609 0.238095 0
0.781609 0.285714 0
0.781609 0.333333 0
0.781609 0.380952 0
0.781609 0.428571 0
0.781609 0.47619 0
0.781609 0.52381 0
0.781609 0.571429 0
0.781609 0.619048 0
0.781609 0.666667 0
0.781609 0.714286 0
0.781609 0.761905 0
0.781609 0.809524 0
0.781609 0.857143 0
0.781609 0.904762 0
0.781609 0.952381 0
0.781609 1 0
0.827586 0 0
0.827586 0.047619 0
0.827586 0.0952381 0
0.827586 0.142857 0
0.827586 0.190476 0
0.827586 0.238095 0
0.827586 0.285714 0
0.827586 0.333333 0
0.827586 0.380952 0
0.827586 0.428571 0
0.827586 0.47619 0
0.827586 0.52381 0
0.827586 0.571429 0
0.827586 0.619048 0
0.827586 0.666667 0
0.827586 0.714286 0
0.827586 0.761905 0
0.827586 0.809524 0
0.827586 0.857143 0
0.827586 0.904762 0
0.827586 0.952381 0
0.827586 1 0
0.873563 0 0
0.873563 0.047619 0
0.873563 0.0952381 0
0.873563 0.142857 0
0.873563 0.190476 0
0.873563 0.238095 0
0.873563 0.285714 0
0.873563 0.333333 0
0.873563 0.380952 0
0.873563 0.428571 0
0.873563 0.47619 0
0.873563 0.52381 0
0.873563 0.571429 0
0.873563 0.619048 0
0.873563 0.666667 0
0.873563 0.714286 0
0.873563 0.761905 0
0.873563 0.809524 0
0.873563 0.857143 0
0.873563 0.904762 0
0.873563 0.952381 0
0.873563 1 0
0.91954 0 0
0.91954 0.047619 0
0.91954 0.0952381 0
0.91954 0.142857 0
0.91954 0.190476 0
0.91954 0.238095 0
0.91954 0.285714 0
0.91954 0.333333 0
0.91954 0.380952 0
0.91954 0.428571 0
0.91954 0.47619 0
0.91954 0.52381 0
0.91954 0.571429 0
0.91954 0.619048 0
0.91954 0.666667 0
0.91954 0.714286 0
0.91954 0.761905 0
0.91954 0.809524 0
0.91954 0.857143 0
0.91954 0.904762 0
0.91954 0.952381 0
0.91954 1 0
0.965517 0 0
0.965517 0.047619 0
0.965517 0.0952381 0
0.965517 0.142857 0
0.965517 0.190476 0
0.965517 0.238095 0
0.965517 0.285714 0
0.965517 0.333333 0
0.965517 0.380952 0
0.965517 0.428571 0
0.965517 0.47619 0
0.965517 0.52381 0
0.965517 0.571429 0
0.965517 0.619048 0
0.965517 0.666667 0
0.965517 0.714286 0
0.965517 0.761905 0
0.965517 0.809524 0
0.965517 0.857143 0
0.965517 0.904762 0
0.965517 0.952381 0
0.965517 1 0
1.01149 0 0
1.01149 0.047619 0
1.01149 0.0952381 0
1.01149 0.142857 0
1.01149 0.190476 0
1.01149 0.238095 0
1.01149 0.285714 0
1.01149 0.333333 0
1.01149 0.380952 0
1.01149 0.428571 0
1.01149 0.47619 0
1.01149 0.52381 0
1.01149 0.571429 0
1.01149 0.619048 0
1.01149 0.666667 0
1.01149 0.714286 0
1.01149 0.761905 0
1.01149 0.809524 0
1.01149 0.857143 0
1.01149 0.904762 0
1.01149 0.952381 0
1.01149 1 0
1.05747 0 0
1.05747 0.047619 0
1.05747 0.0952381 0
1.05747 0.142857 0
1.05747 0.190476 0
1.05747 0.238095 0
1.05747 0.285714 0
1.05747 0.333333 0
1.05747 0.380952 0
1.05747 0.428571 0
1.05747 0.47619 0
1.05747 0.52381 0
1.05747 0.571429 0
1.05747 0.619048 0
1.05747 0.666667 0
1.05747 0.714286 0
1.05747 0.761905 0
1.05747 0.809524 0
1.05747 0.857143 0
1.05747 0.904762 0
1.05747 0.952381 0
1.05747 1 0
1.10345 0 0
1.10345 0.047619 0
1.10345 0.0952381 0
1.10345 0.142857 0
1.10345 0.190476 0
1.10345 0.238095 0
1.10345 0.285714 0
1.10345 0.333333 0
1.10345 0.380952 0
1.10345 0.428571 0
1.10345 0.47619 0
1.10345 0.52381 0
1.10345 0.571429 0
[...]
POINT_DATA 1913
VECTORS velocity[m/s] double
-0 0.189626 0
0 0.189836 0
0 0.176069 0
0 0.141573 0
0 0.111028 0
0 0.0861205 0
0 0.0656311 0
0 0.0482771 0
0 0.0330425 0
0 0.0191458 0
0 0.00596108 0
0 -0.00705781 0
0 -0.0204456 0
0 -0.0347969 0
0 -0.0508546 0
0 -0.0696372 0
0 -0.092637 0
0 -0.12212 0
0 -0.16133 0
0 -0.211792 0
0 -0.244041 0
-0.868055 0.162744 0
0.868151 0.0014354 0
1.06494 0.163031 0
1.0853 0.169102 0
1.08187 0.138315 0
1.07678 0.108084 0
1.07283 0.0836209 0
1.07006 0.0637414 0
1.0682 0.046951 0
1.06705 0.0321767 0
1.06644 0.0186555 0
1.06629 0.00579872 0
1.06661 -0.0068987 0
1.06744 -0.0199268 0
1.06892 -0.033825 0
1.07132 -0.0492611 0
1.07509 -0.0671495 0
1.08095 -0.088841 0
1.08987 -0.116329 0
1.10016 -0.151493 0
1.08195 -0.188338 0
0.814667 -0.178701 0
-0.712365 0.115476 0
0.712185 0.00103636 0
1.05912 0.115858 0
1.11506 0.137483 0
1.11109 0.119879 0
1.10044 0.0966218 0
1.09206 0.0760642 0
1.08631 0.0586654 0
1.08251 0.0435828 0
1.08014 0.0300555 0
1.07889 0.0175111 0
1.07859 0.00549718 0
1.07923 -0.00637924 0
1.0809 -0.0184959 0
1.08387 -0.0312535 0
1.08863 -0.0451168 0
1.09607 -0.0606612 0
1.10753 -0.0786002 0
1.12386 -0.0995458 0
1.13577 -0.122148 0
1.07269 -0.135049 0
0.642166 -0.100749 0
-0.60194 0.0704331 0
0.601394 0.000632883 0
1.03829 0.0708094 0
1.1321 0.0969599 0
1.13359 0.0925271 0
1.12033 0.079095 0
1.1089 0.0646718 0
1.10091 0.0511317 0
1.09561 0.0386258 0
1.0923 0.0269484 0
1.09053 0.0158472 0
1.0901 0.00507813 0
1.09097 -0.00559079 0
1.09326 -0.0163829 0
1.0973 -0.0275142 0
1.10368 -0.0391848 0
1.11343 -0.0515396 0
1.1278 -0.0645325 0
1.14572 -0.0774279 0
1.14828 -0.0870459 0
1.03962 -0.0833253 0
0.544938 -0.0485036 0
-0.53462 0.0377516 0
0.533714 0.000339629 0
1.01309 0.0380242 0
1.13643 0.0612831 0
1.14661 0.0652518 0
1.13431 0.0602176 0
1.12203 0.0518477 0
1.11304 0.0424283 0
1.10693 0.0328031 0
1.10306 0.0232582 0
1.10098 0.0138574 0
1.10045 0.00457293 0
1.10144 -0.0046577 0
1.10405 -0.0138982 0
1.10861 -0.0231833 0
1.11566 -0.0324723 0
1.12603 -0.0415606 0
1.1403 -0.0498861 0
1.15506 -0.0560823 0
1.14473 -0.0570178 0
1.00605 -0.0467718 0
0.498158 -0.021253 0
-0.498575 0.0183236 0
0.497407 0.000165056 0
0.990683 0.0184721 0
1.13265 0.0359786 0
1.15152 0.0433413 0
1.14244 0.0435514 0
1.13117 0.0397313 0
1.12238 0.033813 0
1.1162 0.0268549 0
1.11219 0.0194074 0
1.10999 0.0117493 0
1.10941 0.00402073 0
1.11041 -0.00369958 0
1.11307 -0.0113424 0
1.11763 -0.018801 0
1.12449 -0.0258714 0
1.13412 -0.0321582 0
1.14634 -0.0369165 0
1.15602 -0.0388004 0
1.13489 -0.0356292 0
0.981459 -0.0250518 0
0.477689 -0.00886505 0
-0.48112 0.00844278 0
0.479809 7.61063e-05 0
0.973832 0.00850183 0
1.1256 0.0204313 0
1.15137 0.0279387 0
1.14618 0.0305464 0
1.13694 0.0295117 0
1.12915 0.0261307 0
1.12344 0.0213405 0
1.11963 0.0157403 0
1.1175 0.00970135 0
1.11692 0.00346138 0
1.11784 -0.00280724 0
1.12032 -0.00894549 0
1.12451 -0.0147599 0
1.13061 -0.0199682 0
1.13876 -0.0241286 0
1.14821 -0.0265488 0
1.153 -0.0262121 0
1.12473 -0.0219302 0
0.965882 -0.0133756 0
0.469182 -0.00368283 0
-0.473118 0.00394673 0
0.471751 3.55602e-05 0
0.962365 0.0039593 0
1.1184 0.011694 0
1.1489 0.0179356 0
1.14723 0.0211374 0
1.14025 0.0215058 0
1.13382 0.0197562 0
1.1289 0.0165732 0
1.12551 0.0124766 0
1.12358 0.00783772 0
1.12302 0.00292804 0
1.12382 -0.00203488 0
1.12599 -0.00684645 0
1.12959 -0.0112769 0
1.13468 -0.0150318 0
1.14115 -0.0177109 0
1.14793 -0.0187757 0
1.14892 -0.0175769 0
1.11652 -0.0136144 0
0.956575 -0.00738018 0
0.465678 -0.0016058 0
-0.469416 0.00201189 0
0.468037 1.80938e-05 0
0.954947 0.00200658 0
1.11242 0.00696569 0
1.14586 0.0116757 0
1.14692 0.0146087 0
1.14199 0.0155186 0
1.13695 0.0147214 0
1.1329 0.0126552 0
1.13004 0.00971579 0
1.12837 0.00622477 0
1.12786 0.00244323 0
1.12851 -0.00140402 0
1.13031 -0.00510245 0
1.13326 -0.00842264 0
1.13731 -0.0110971 0
1.14223 -0.012803 0
1.14682 -0.0131648 0
1.14515 -0.0118169 0
1.11055 -0.00863638 0
0.95105 -0.00429575 0
0.464177 -0.000771099 0
-0.467564 0.00116454 0
0.46619 1.04484e-05 0
0.950208 0.00115507 0
1.10792 0.0043794 0
1.14308 0.0077755 0
1.14609 0.0101582 0
1.14281 0.0111608 0
1.13899 0.0108738 0
1.13579 0.00955052 0
1.13346 0.00746793 0
1.13207 0.00488143 0
1.13162 0.00201859 0
1.13213 -0.000912819 0
1.13357 -0.0037119 0
1.13589 -0.00617131 0
1.13901 -0.00806704 0
1.14262 -0.00915645 0
1.14557 -0.00919525 0
1.14212 -0.00799984 0
1.10641 -0.00561505 0
0.947695 -0.0026419 0
0.463482 -0.000415215 0
-0.46652 0.000755383 0
0.465155 6.76469e-06 0
0.947142 0.000746684 0
1.10469 0.00289636 0
1.14083 0.00530363 0
1.14517 0.00713001 0
1.14313 0.0080325 0
1.14031 0.00799561 0
1.13785 0.00715315 0
1.136 0.00568891 0
1.13488 0.00379484 0
1.1345 0.00165703 0
1.13488 -0.000545861 0
1.13599 -0.00263894 0
1.13777 -0.0044466 0
1.14011 -0.00579081 0
1.14271 -0.00649662 0
1.14446 -0.00641187 0
1.13987 -0.00545592 0
1.10359 -0.00372852 0
0.945593 -0.00169678 0
0.463128 -0.000245457 0
-0.465866 0.000527637 0
0.464509 4.71989e-06 0
0.945112 0.000520825 0
1.10241 0.0019913 0
1.13911 0.00369422 0
1.14435 0.00505535 0
1.14321 0.0057989 0
1.14117 0.00587065 0
1.13931 0.00533497 0
1.13788 0.0043099 0
1.13699 0.00293481 0
1.13667 0.00135549 0
1.13694 -0.000281928 0
1.13778 -0.00183278 0
1.13911 -0.00315486 0
1.14083 -0.00411138 0
1.14267 -0.00457907 0
1.14359 -0.00446533 0
1.13825 -0.0037421 0
1.10167 -0.00251309 0
0.944238 -0.00112054 0
0.462937 -0.000153204 0
-0.465427 0.0003842 0
0.464077 3.43476e-06 0
0.943737 0.000379136 0
1.10081 0.00140661 0
1.13784 0.00261708 0
1.14367 0.00361899 0
1.14319 0.00420468 0
1.14173 0.0043135 0
1.14034 0.00397264 0
1.13925 0.00325667 0
1.13855 0.00226472 0
1.1383 0.00110767 0
1.13849 -9.91359e-05 0
1.1391 -0.00124038 0
1.14008 -0.00220453 0
1.14133 -0.00288878 0
1.14261 -0.00320716 0
1.14293 -0.00310369 0
1.1371 -0.00257454 0
1.10037 -0.00170871 0
0.943348 -0.000750864 0
0.462834 -9.76404e-05 0
-0.465124 0.000286848 0
0.463779 2.56355e-06 0
0.942788 0.000283136 0
1.09969 0.00101266 0
1.13691 0.00187919 0
1.14315 0.00261365 0
1.14313 0.0030642 0
1.1421 0.00317665 0
1.14107 0.00295976 0
1.14025 0.00246037 0
1.13971 0.00174821 0
1.13951 0.000905946 0
1.13963 2.22627e-05 0
1.14007 -0.000813389 0
1.14078 -0.00151552 0
1.14168 -0.00200797 0
1.14255 -0.0022309 0
1.14246 -0.00215025 0
1.13631 -0.00177177 0
1.09949 -0.00116581 0
0.94276 -0.000505723 0
0.462782 -6.22332e-05 0
-0.464912 0.000218336 0
0.46357 1.95075e-06 0
0.942125 0.000215614 0
1.09889 0.000739799 0
1.13625 0.00136459 0
1.14276 0.00190305 0
1.14306 0.00224546 0
1.14236 0.00234768 0
1.1416 0.00221008 0
1.14098 0.00186218 0
1.14057 0.00135278 0
1.1404 0.000742661 0
1.14048 9.87168e-05 0
1.14079 -0.000511051 0
1.1413 -0.00102222 0
1.14194 -0.00137887 0
1.14251 -0.00153923 0
1.14214 -0.00148223 0
1.13577 -0.00121631 0
1.0989 -0.000794747 0
0.942374 -0.000340172 0
0.462764 -3.92729e-05 0
-0.464763 0.000169312 0
0.463424 1.51238e-06 0
0.941659 0.000167312 0
1.09833 0.000547458 0
1.13577 0.00100092 0
1.14247 0.00139657 0
1.143 0.00165534 0
1.14253 0.00174293 0
1.14197 0.00165636 0
1.14151 0.00141438 0
1.1412 0.00105111 0
1.14106 0.000610803 0
1.14111 0.000143213 0
1.14133 -0.000300735 0
1.14169 -0.000673087 0
1.14213 -0.000933036 0
1.1425 -0.00105125 0
1.14192 -0.00101438 0
1.1354 -0.000830619 0
1.0985 -0.000539389 0
0.942124 -0.0002275 0
0.462766 -2.45113e-05 0
-0.464659 0.000133913 0
0.463322 1.19588e-06 0
0.941331 0.000132439 0
1.09793 0.00041028 0
1.13542 0.00074134 0
1.14225 0.001033 0
1.14295 0.00122825 0
1.14265 0.00130105 0
1.14225 0.00124748 0
1.1419 0.00107957 0
1.14166 0.000821176 0
1.14155 0.000504317 0
1.14158 0.000165615 0
1.14172 -0.000157221 0
1.14198 -0.000428817 0
1.14228 -0.000619502 0
1.1425 -0.000708547 0
1.14179 -0.000687276 0
1.13516 -0.000562577 0
1.09823 -0.000363229 0
0.941967 -0.00015076 0
0.462782 -1.52768e-05 0
-0.464586 0.000108156 0
0.463251 9.65605e-07 0
0.9411 0.000107069 0
1.09765 0.000311583 0
1.13518 0.000554584 0
1.1421 0.000770396 0
1.14292 0.000917836 0
1.14274 0.000977377 0
1.14245 0.000945185 0
1.14219 0.000829057 0
1.14201 0.000645694 0
1.14192 0.000418159 0
1.14192 0.000173196 0
1.14202 -6.15016e-05 0
1.1422 -0.000260016 0
1.14241 -0.000400819 0
1.14252 -0.000469178 0
1.1417 -0.00045929 0
1.135 -0.000376562 0
1.09807 -0.000241825 0
0.941873 -9.87098e-05 0
0.462804 -9.76076e-06 0
-0.464537 8.92478e-05 0
0.463203 7.9659e-07 0
0.940939 8.84473e-05 0
1.09745 0.000240031 0
1.13501 0.000419298 0
1.142 0.000579644 0
1.1429 0.000691235 0
1.14281 0.00073952 0
1.14259 0.000721142 0
1.1424 0.000641188 0
1.14226 0.000511365 0
1.14219 0.000348225 0
1.14219 0.000171191 0
1.14225 4.72076e-07 0
1.14237 -0.000145035 0
1.14251 -0.000249734 0
1.14255 -0.000303095 0
1.14166 -0.000301137 0
1.13491 -0.000247933 0
1.09797 -0.000158475 0
0.941824 -6.36858e-05 0
0.462831 -6.70359e-06 0
-0.464503 7.52094e-05 0
0.46317 6.71121e-07 0
0.940827 7.46215e-05 0
1.09731 0.000187765 0
1.13489 0.000320657 0
1.14192 0.000440305 0
1.14289 0.000525041 0
1.14286 0.000564041 0
1.14271 0.000554513 0
1.14256 0.000499789 0
1.14245 0.00040808 0
1.1424 0.000291232 0
1.14239 0.000163291 0
1.14243 3.89357e-05 0
1.1425 -6.81065e-05 0
1.1426 -0.000146546 0
1.14258 -0.000188824 0
1.14164 -0.000192143 0
1.13486 -0.000159493 0
1.09791 -0.000101617 0
0.941803 -4.03889e-05 0
0.46286 -5.22489e-06 0
-0.464481 6.46324e-05 0
0.463148 5.76608e-07 0
0.940752 6.42025e-05 0
1.09722 0.000149266 0
1.13481 0.000248251 0
1.14188 0.000337931 0
1.14288 0.000402526 0
1.1429 0.00043398 0
1.14279 0.000430031 0
1.14268 0.000392858 0
1.1426 0.000328219 0
1.14255 0.000244575 0
1.14254 0.000152046 0
1.14256 6.12564e-05 0
1.14261 -1.78467e-05 0
1.14267 -7.70966e-05 0
1.14262 -0.000111044 0
1.14164 -0.000117686 0
1.13484 -9.91739e-05 0
1.09788 -6.31797e-05 0
0.941803 -2.51281e-05 0
0.462888 -4.71514e-06 0
-0.464467 5.65163e-05 0
0.463135 5.04102e-07 0
0.940702 5.62039e-05 0
1.09715 0.000120637 0
1.13475 0.000194713 0
1.14185 0.00026224 0
1.14289 0.000311694 0
1.14294 0.000337063 0
1.14286 0.000336535 0
1.14278 0.000311526 0
1.14271 0.00026607 0
1.14267 0.000206196 0
1.14266 0.000139178 0
1.14267 7.2682e-05 0
1.1427 1.39029e-05 0
1.14274 -3.1252e-05 0
1.14265 -5.88414e-05 0
1.14166 -6.74085e-05 0
1.13483 -5.84763e-05 0
1.09788 -3.75068e-05 0
0.941815 -1.53287e-05 0
0.462916 -4.7594e-06 0
-0.464459 5.01515e-05 0
0.463127 4.47256e-07 0
0.94067 4.99264e-05 0
1.09711 9.91049e-05 0
1.13472 0.000154797 0
1.14183 0.000205882 0
1.14289 0.000243918 0
1.14297 0.000264395 0
1.14291 0.000265871 0
1.14285 0.000249252 0
1.1428 0.000217358 0
1.14277 0.000174476 0
1.14276 0.000125821 0
1.14276 7.6914e-05 0
1.14278 3.29509e-05 0
1.14279 -1.79485e-06 0
1.14269 -2.44635e-05 0
1.14168 -3.39806e-05 0
1.13484 -3.14097e-05 0
1.09789 -2.06293e-05 0
0.941836 -9.19717e-06 0
0.462942 -5.08149e-06 0
-0.464455 4.5035e-05 0
0.463123 4.01574e-07 0
0.940652 4.4875e-05 0
1.09709 8.26962e-05 0
1.1347 0.000124755 0
1.14182 0.000163584 0
1.1429 0.000192977 0
1.143 0.000209527 0
1.14296 0.000212085 0
1.14291 0.000201217 0
1.14287 0.000178888 0
1.14285 0.000148138 0
1.14283 0.000112697 0
1.14283 7.65375e-05 0
1.14284 4.34058e-05 0
1.14284 1.63949e-05 0
1.14273 -2.41394e-06 0
1.14171 -1.22187e-05 0
1.13486 -1.37523e-05 0
1.09791 -9.76355e-06 0
0.941862 -5.48971e-06 0
0.462966 -5.503e-06 0
-0.464454 4.08115e-05 0
0.463123 3.63876e-07 0
0.940644 4.07001e-05 0
1.09708 6.99994e-05 0
1.13469 0.000101896 0
1.14182 0.00013155 0
1.14291 0.000154373 0
1.14302 0.000167771 0
1.143 0.000170822 0
1.14296 0.000163867 0
1.14293 0.000148266 0
1.14291 0.00012617 0
1.14289 0.000100244 0
1.14289 7.33385e-05 0
1.14289 4.81543e-05 0
1.14289 2.69317e-05 0
1.14277 1.11898e-05 0
1.14174 1.53383e-06 0
1.13489 -2.53467e-06 0
1.09793 -2.96242e-06 0
0.94189 -3.34904e-06 0
0.462989 -5.91328e-06 0
-0.464456 3.72297e-05 0
0.463124 3.31917e-07 0
0.940642 3.7155e-05 0
1.09707 6.00042e-05 0
1.13469 8.42855e-05 0
1.14183 0.000107041 0
1.14293 0.00012485 0
1.14305 0.000135716 0
1.14303 0.000138895 0
1.143 0.000134576 0
1.14298 0.000123696 0
1.14296 0.000107773 0
1.14295 8.87046e-05 0
1.14294 6.85344e-05 0
1.14294 4.92096e-05 0
1.14293 3.23537e-05 0
1.14281 1.90797e-05 0
1.14177 9.84837e-06 0
1.13491 4.32565e-06 0
1.09796 1.13064e-06 0
0.941919 -2.18936e-06 0
0.46301 -6.2478e-06 0
-0.464458 3.41124e-05 0
0.463126 3.04111e-07 0
0.940646 3.40655e-05 0
1.09707 5.19857e-05 0
1.13469 7.05297e-05 0
1.14183 8.80743e-05 0
1.14294 0.000102042 0
1.14307 0.000110872 0
1.14306 0.000113962 0
1.14304 0.000111401 0
1.14302 0.000103828 0
1.143 9.23079e-05 0
1.14299 7.81914e-05 0
1.14299 6.2942e-05 0
1.14298 4.79628e-05 0
1.14297 3.44321e-05 0
1.14284 2.31682e-05 0
1.1418 1.45254e-05 0
1.13494 8.28275e-06 0
1.09799 3.45543e-06 0
0.941948 -1.61481e-06 0
0.46303 -6.47271e-06 0
-0.464462 3.13344e-05 0
0.46313 2.79337e-07 0
0.940653 3.13089e-05 0
1.09708 4.54227e-05 0
1.1347 5.96195e-05 0
1.14185 7.32106e-05 0
1.14296 8.42234e-05 0
1.14309 9.14203e-05 0
1.14309 9.43036e-05 0
1.14307 9.2899e-05 0
1.14305 8.76367e-05 0
1.14304 7.92626e-05 0
1.14303 6.87338e-05 0
1.14303 5.70976e-05 0
1.14302 4.53651e-05 0
1.14301 3.43932e-05 0
1.14287 2.47862e-05 0
1.14183 1.68186e-05 0
1.13497 1.03462e-05 0
1.09802 4.65831e-06 0
0.941977 -1.36171e-06 0
0.463048 -6.57399e-06 0
-0.464466 2.88071e-05 0
0.463134 2.56805e-07 0
0.940662 2.87984e-05 0
1.09709 3.99392e-05 0
1.13471 5.08237e-05 0
1.14186 6.14036e-05 0
1.14297 7.01374e-05 0
1.14311 7.60233e-05 0
1.14311 7.86468e-05 0
1.1431 7.79925e-05 0
1.14309 7.43459e-05 0
1.14307 6.82254e-05 0
1.14307 6.03082e-05 0
1.14306 5.13426e-05 0
1.14305 4.20578e-05 0
1.14304 3.30783e-05 0
1.1429 2.48526e-05 0
1.14186 1.75949e-05 0
1.135 1.12117e-05 0
1.09804 5.17965e-06 0
0.942005 -1.25769e-06 0
0.463064 -6.54996e-06 0
-0.464471 2.6468e-05 0
0.463139 2.35954e-07 0
0.940673 2.64725e-05 0
1.0971 3.52637e-05 0
1.13472 4.36103e-05 0
1.14187 5.1889e-05 0
1.14299 5.88613e-05 0
1.14313 6.36982e-05 0
1.14314 6.60496e-05 0
1.14312 6.58755e-05 0
1.14311 6.33605e-05 0
1.1431 5.88627e-05 0
1.1431 5.28593e-05 0
1.14309 4.58848e-05 0
1.14309 3.84653e-05 0
1.14307 3.10573e-05 0
1.14293 2.39955e-05 0
1.14189 1.74484e-05 0
1.13503 1.13546e-05 0
1.09807 5.31589e-06 0
0.942032 -1.19295e-06 0
0.46308 -6.40623e-06 0
-0.464476 2.42722e-05 0
0.463144 2.16384e-07 0
0.940685 2.42873e-05 0
1.09711 3.11988e-05 0
1.13473 3.75913e-05 0
1.14188 4.41068e-05 0
1.14301 4.97166e-05 0
1.14315 5.37179e-05 0
1.14316 5.58107e-05 0
1.14315 5.59406e-05 0
1.14314 5.4223e-05 0
1.14313 5.09028e-05 0
1.14312 4.63152e-05 0
1.14312 4.08415e-05 0
1.14311 3.48616e-05 0
1.14309 2.87103e-05 0
1.14296 2.26393e-05 0
1.14191 1.67816e-05 0
1.13505 1.10953e-05 0
1.0981 5.26347e-06 0
0.942057 -1.10009e-06 0
0.463094 -6.15226e-06 0
-0.464481 2.21879e-05 0
0.463149 1.97809e-07 0
0.940697 2.22117e-05 0
1.09713 2.76007e-05 0
1.13474 3.24821e-05 0
1.1419 3.76453e-05 0
1.14302 4.22026e-05 0
1.14317 4.55428e-05 0
1.14317 4.74051e-05 0
1.14317 4.77278e-05 0
1.14316 4.65789e-05 0
1.14315 4.41238e-05 0
1.14315 4.05969e-05 0
1.14314 3.62696e-05 0
1.14314 3.1417e-05 0
1.14312 2.62856e-05 0
1.14298 2.10658e-05 0
1.14194 1.58634e-05 0
1.13508 1.0647e-05 0
1.09812 5.1499e-06 0
0.942081 -9.4001e-07 0
0.463107 -5.79922e-06 0
-0.464487 2.01921e-05 0
0.463155 1.80025e-07 0
0.940709 2.0223e-05 0
1.09714 2.43641e-05 0
1.13475 2.80731e-05 0
1.14191 3.22e-05 0
1.14304 3.59474e-05 0
1.14318 3.87702e-05 0
1.14319 4.04382e-05 0
1.14319 4.08868e-05 0
1.14318 4.0152e-05 0
1.14317 3.83435e-05 0
1.14317 3.56242e-05 0
1.14316 3.21872e-05 0
1.14316 2.82317e-05 0
1.14314 2.39404e-05 0
1.14301 1.94583e-05 0
1.14196 1.487e-05 0
1.1351 1.01485e-05 0
1.09815 5.0556e-06 0
0.942103 -6.92133e-07 0
0.463119 -5.35855e-06 0
-0.464492 1.82681e-05 0
0.46316 1.62881e-07 0
0.940722 1.83047e-05 0
1.09715 2.14111e-05 0
1.13477 2.42093e-05 0
1.14192 2.7545e-05 0
1.14305 3.06738e-05 0
1.1432 3.30982e-05 0
1.14321 3.46115e-05 0
1.1432 3.51492e-05 0
1.1432 3.47257e-05 0
1.14319 3.3412e-05 0
1.14319 3.13203e-05 0
1.14318 2.85878e-05 0
1.14318 2.5359e-05 0
1.14316 2.177e-05 0
1.14303 1.79324e-05 0
1.14198 1.39137e-05 0
1.13512 9.68756e-06 0
1.09817 5.02932e-06 0
0.942124 -3.47692e-07 0
0.46313 -4.84118e-06 0
-0.464497 1.64033e-05 0
0.463165 1.46267e-07 0
0.940734 1.64446e-05 0
1.09716 1.86839e-05 0
1.13478 2.07751e-05 0
1.14194 2.35113e-05 0
1.14306 2.6174e-05 0
1.14321 2.82989e-05 0
1.14322 2.96978e-05 0
1.14322 3.03077e-05 0
1.14321 3.01288e-05 0
1.14321 2.92054e-05 0
1.14321 2.76137e-05 0
1.1432 2.54507e-05 0
1.1432 2.28217e-05 0
1.14318 1.98285e-05 0
1.14305 1.65579e-05 0
1.142 1.30638e-05 0
1.13514 9.3179e-06 0
1.09819 5.09879e-06 0
0.942144 9.4886e-08 0
0.46314 -4.25702e-06 0
-0.464502 1.45885e-05 0
0.46317 1.30098e-07 0
0.940745 1.46337e-05 0
1.09718 1.61391e-05 0
1.13479 1.76837e-05 0
1.14195 1.9972e-05 0
1.14307 2.22912e-05 0
1.14322 2.41995e-05 0
1.14324 2.55232e-05 0
1.14323 2.62016e-05 0
1.14323 2.62259e-05 0
1.14323 2.56215e-05 0
1.14322 2.44394e-05 0
1.14322 2.27477e-05 0
1.14322 2.06233e-05 0
1.1432 1.81429e-05 0
1.14306 1.53744e-05 0
1.14202 1.23608e-05 0
1.13516 9.07045e-06 0
1.09821 5.27827e-06 0
0.942161 6.33103e-07 0
0.46315 -3.61476e-06 0
-0.464507 1.28166e-05 0
0.463174 1.14312e-07 0
0.940756 1.2865e-05 0
1.09719 1.3744e-05 0
1.1348 1.48696e-05 0
1.14196 1.68311e-05 0
1.14308 1.89061e-05 0
1.14323 2.06678e-05 0
1.14325 2.19538e-05 0
1.14325 2.27057e-05 0
1.14324 2.2909e-05 0
1.14324 2.25761e-05 0
1.14324 2.174e-05 0
1.14323 2.04481e-05 0
1.14323 1.87564e-05 0
1.14321 1.67231e-05 0
1.14308 1.44017e-05 0
1.14203 1.18266e-05 0
1.13518 8.96161e-06 0
1.09822 5.57371e-06 0
0.942178 1.2625e-06 0
0.463159 -2.92173e-06 0
-0.464511 1.10821e-05 0
0.463179 9.88595e-08 0
0.940766 1.11329e-05 0
1.0972 1.14734e-05 0
1.13481 1.22829e-05 0
1.14197 1.40152e-05 0
1.14309 1.59276e-05 0
1.14324 1.76024e-05 0
1.14326 1.88857e-05 0
1.14326 1.97216e-05 0
1.14325 2.00918e-05 0
1.14325 1.99998e-05 0
1.14325 1.94655e-05 0
1.14325 1.85212e-05 0
1.14324 1.72076e-05 0
1.14323 1.55689e-05 0
1.14309 1.36479e-05 0
1.14205 1.14715e-05 0
1.13519 8.99892e-06 0
1.09824 5.98635e-06 0
0.942193 1.97805e-06 0
0.463167 -2.18391e-06 0
-0.464515 9.38042e-06 0
0.463183 8.37002e-08 0
0.940776 9.43317e-06 0
1.09721 9.3077e-06 0
1.13482 9.88498e-06 0
1.14197 1.1468e-05 0
1.1431 1.32856e-05 0
1.14325 1.49249e-05 0
1.14327 1.62382e-05 0
1.14327 1.7172e-05 0
1.14326 1.77055e-05 0
1.14326 1.78357e-05 0
1.14326 1.7573e-05 0
1.14326 1.69385e-05 0
1.14325 1.59613e-05 0
1.14324 1.46752e-05 0
1.1431 1.31142e-05 0
1.14206 1.12993e-05 0
1.1352 9.18506e-06 0
1.09825 6.51524e-06 0
0.942207 2.77515e-06 0
0.463175 -1.40595e-06 0
-0.464519 7.70798e-06 0
0.463187 6.88013e-08 0
0.940784 7.76208e-06 0
1.09721 7.23151e-06 0
1.13482 7.64571e-06 0
1.14198 9.14548e-06 0
1.14311 1.09255e-05 0
1.14326 1.25739e-05 0
1.14327 1.3948e-05 0
1.14327 1.4996e-05 0
1.14327 1.56953e-05 0
1.14327 1.60379e-05 0
1.14327 1.60271e-05 0
1.14327 1.56753e-05 0
1.14326 1.50028e-05 0
1.14325 1.40349e-05 0
1.14311 1.27989e-05 0
1.14207 1.13108e-05 0
1.13521 9.52066e-06 0
1.09826 7.15899e-06 0
0.942219 3.65026e-06 0
0.463182 -5.91185e-07 0
-0.464522 6.06155e-06 0
0.46319 5.41344e-08 0
0.940792 6.11651e-06 0
1.09722 5.2323e-06 0
1.13483 5.54114e-06 0
1.14199 7.01309e-06 0
1.14311 8.8042e-06 0
1.14326 1.05015e-05 0
1.14328 1.19654e-05 0
1.14328 1.31455e-05 0
1.14328 1.40176e-05 0
1.14328 1.45697e-05 0
1.14328 1.4799e-05 0
1.14327 1.47112e-05 0
1.14327 1.43191e-05 0
1.14326 1.36416e-05 0
1.14312 1.27001e-05 0
1.14208 1.15064e-05 0
1.13522 1.00063e-05 0
1.09828 7.91706e-06 0
0.94223 4.60137e-06 0
0.463188 2.5834e-07 0
-0.464526 4.43825e-06 0
0.463193 3.96737e-08 0
0.940799 4.49361e-06 0
1.09723 3.29958e-06 0
1.13483 3.55174e-06 0
1.14199 5.04294e-06 0
1.14312 6.88752e-06 0
1.14327 8.66937e-06 0
1.14328 1.02511e-05 0
1.14328 1.15827e-05 0
1.14328 1.26383e-05 0
1.14328 1.34022e-05 0
1.14328 1.38665e-05 0
1.14328 1.40307e-05 0
1.14328 1.39013e-05 0
1.14326 1.34913e-05 0
1.14313 1.28175e-05 0
1.14209 1.18879e-05 0
1.13523 1.06443e-05 0
1.09828 8.79078e-06 0
0.94224 5.62844e-06 0