# vtk DataFile Version 3.0
vtk output
ASCII
DATASET UNSTRUCTURED_GRID
POINTS 1913 double
0.045977 0 0
0.045977 0.0952381 0
0.045977 0.142857 0
0.045977 0.190476 0
0.045977 0.238095 0
0.045977 0.285714 0
0.045977 0.333333 0
0.045977 0.380952 0
0.045977 0.428571 0
0.045977 0.47619 0
0.045977 0.52381 0
0.045977 0.571429 0
0.045977 0.619048 0
0.045977 0.666667 0
0.045977 0.714286 0
0.045977 0.761905 0
0.045977 0.809524 0
0.045977 0.857143 0
0.045977 0.904762 0
0.045977 0.952381 0
0.045977 1 0
0.091954 0 0
0.091954 0.047619 0
0.091954 0.0952381 0
0.091954 0.142857 0
0.091954 0.190476 0
0.091954 0.238095 0
0.091954 0.285714 0
0.091954 0.333333 0
0.091954 0.380952 0
0.091954 0.428571 0
0.091954 0.47619 0
0.091954 0.52381 0
0.091954 0.571429 0
0.091954 0.619048 0
0.091954 0.666667 0
0.091954 0.714286 0
0.091954 0.761905 0
0.091954 0.809524 0
0.091954 0.857143 0
0.091954 0.904762 0
0.091954 0.952381 0
0.091954 1 0
0.137931 0 0
0.137931 0.047619 0
0.137931 0.0952381 0
0.137931 0.142857 0
0.137931 0.190476 0
0.137931 0.238095 0
0.137931 0.285714 0
0.137931 0.333333 0
0.137931 0.380952 0
0.137931 0.428571 0
0.137931 0.47619 0
0.137931 0.52381 0
0.137931 0.571429 0
0.137931 0.619048 0
0.137931 0.666667 0
0.137931 0.714286 0
0.137931 0.761905 0
0.137931 0.809524 0
0.137931 0.857143 0
0.137931 0.904762 0
0.137931 0.952381 0
0.137931 1 0
0.183908 0 0
0.183908 0.047619 0
0.183908 0.0952381 0
0.183908 0.142857 0
0.183908 0.190476 0
0.183908 0.238095 0
0.183908 0.285714 0
0.183908 0.333333 0
0.183908 0.380952 0
0.183908 0.428571 0
0.183908 0.47619 0
0.183908 0.52381 0
0.183908 0.571429 0
0.183908 0.619048 0
0.183908 0.666667 0
0.183908 0.714286 0
0.183908 0.761905 0
0.183908 0.809524 0
0.183908 0.857143 0
0.183908 0.904762 0
0.183908 0.952381 0
0.183908 1 0
0.229885 0 0
0.229885 0.047619 0
0.229885 0.0952381 0
0.229885 0.142857 0
0.229885 0.190476 0
0.229885 0.238095 0
0.229885 0.285714 0
0.229885 0.333333 0
0.229885 0.380952 0
0.229885 0.428571 0
0.229885 0.47619 0
0.229885 0.52381 0
0.229885 0.571429 0
0.229885 0.619048 0
0.229885 0.666667 0
0.229885 0.714286 0
0.229885 0.761905 0
0.229885 0.809524 0
0.229885 0.857143 0
0.229885 0.904762 0
0.229885 0.952381 0
0.229885 1 0
0.275862 0 0
0.275862 0.047619 0
0.275862 0.0952381 0
0.275862 0.142857 0
0.275862 0.190476 0
0.275862 0.238095 0
0.275862 0.285714 0
0.275862 0.333333 0
0.275862 0.380952 0
0.275862 0.428571 0
0.275862 0.47619 0
0.275862 0.52381 0
0.275862 0.571429 0
0.275862 0.619048 0
0.275862 0.666667 0
0.275862 0.714286 0
0.275862 0.761905 0
0.275862 0.809524 0
0.275862 0.857143 0
0.275862 0.904762 0
0.275862 0.952381 0
0.275862 1 0
0.321839 0 0
0.321839 0.047619 0
0.321839 0.0952381 0
0.321839 0.142857 0
0.321839 0.190476 0
0.321839 0.238095 0
0.321839 0.285714 0
0.321839 0.333333 0
0.321839 0.380952 0
0.321839 0.428571 0
0.321839 0.47619 0
0.321839 0.52381 0
0.321839 0.571429 0
0.321839 0.619048 0
0.321839 0.666667 0
0.321839 0.714286 0
0.321839 0.761905 0
0.321839 0.809524 0
0.321839 0.857143 0
0.321839 0.904762 0
0.321839 0.952381 0
0.321839 1 0
0.367816 0 0
0.367816 0.047619 0
0.367816 0.0952381 0
0.367816 0.142857 0
0.367816 0.190476 0
0.367816 0.238095 0
0.367816 0.285714 0
0.367816 0.333333 0
0.367816 0.380952 0
0.367816 0.428571 0
0.367816 0.47619 0
0.367816 0.52381 0
0.367816 0.571429 0
0.367816 0.619048 0
0.367816 0.666667 0
0.367816 0.714286 0
0.367816 0.761905 0
0.367816 0.809524 0
0.367816 0.857143 0
0.367816 0.904762 0
0.367816 0.952381 0
0.367816 1 0
0.413793 0 0
0.413793 0.047619 0
0.413793 0.0952381 0
0.413793 0.142857 0
0.413793 0.190476 0
0.413793 0.238095 0
0.413793 0.285714 0
0.413793 0.333333 0
0.413793 0.380952 0
0.413793 0.428571 0
0.413793 0.47619 0
0.413793 0.52381 0
0.413793 0.571429 0
0.413793 0.619048 0
0.413793 0.666667 0
0.413793 0.714286 0
0.413793 0.761905 0
0.413793 0.809524 0
0.413793 0.857143 0
0.413793 0.904762 0
0.413793 0.952381 0
0.413793 1 0
0.45977 0 0
0.45977 0.047619 0
0.45977 0.0952381 0
0.45977 0.142857 0
0.45977 0.190476 0
0.45977 0.238095 0
0.45977 0.285714 0
0.45977 0.333333 0
0.45977 0.380952 0
0.45977 0.428571 0
0.45977 0.47619 0
0.45977 0.52381 0
0.45977 0.571429 0
0.45977 0.619048 0
0.45977 0.666667 0
0.45977 0.714286 0
0.45977 0.761905 0
0.45977 0.809524 0
0.45977 0.857143 0
0.45977 0.904762 0
0.45977 0.952381 0
0.45977 1 0
0.505747 0 0
0.505747 0.047619 0
0.505747 0.0952381 0
0.505747 0.142857 0
0.505747 0.190476 0
0.505747 0.238095 0
0.505747 0.285714 0
0.505747 0.333333 0
0.505747 0.380952 0
0.505747 0.428571 0
0.505747 0.47619 0
0.505747 0.52381 0
0.505747 0.571429 0
0.505747 0.619048 0
0.505747 0.666667 0
0.505747 0.714286 0
0.505747 0.761905 0
0.505747 0.809524 0
0.505747 0.857143 0
0.505747 0.904762 0
0.505747 0.952381 0
0.505747 1 0
0.551724 0 0
0.551724 0.047619 0
0.551724 0.0952381 0
0.551724 0.142857 0
0.551724 0.190476 0
0.551724 0.238095 0
0.551724 0.285714 0
0.551724 0.333333 0
0.551724 0.380952 0
0.551724 0.428571 0
0.551724 0.47619 0
0.551724 0.52381 0
0.551724 0.571429 0
0.551724 0.619048 0
0.551724 0.666667 0
0.551724 0.714286 0
0.551724 0.761905 0
0.551724 0.809524 0
0.551724 0.857143 0
0.551724 0.904762 0
0.551724 0.952381 0
0.551724 1 0
0.597701 0 0
0.597701 0.047619 0
0.597701 0.0952381 0
0.597701 0.142857 0
0.597701 0.190476 0
0.597701 0.238095 0
0.597701 0.285714 0
0.597701 0.333333 0
0.597701 0.380952 0
0.597701 0.428571 0
0.597701 0.47619 0
0.597701 0.52381 0
0.597701 0.571429 0
0.597701 0.619048 0
0.597701 0.666667 0
0.597701 0.714286 0
0.597701 0.761905 0
0.597701 0.809524 0
0.597701 0.857143 0
0.597701 0.904762 0
0.597701 0.952381 0
0.597701 1 0
0.643678 0 0
0.643678 0.047619 0
0.643678 0.0952381 0
0.643678 0.142857 0
0.643678 0.190476 0
0.643678 0.238095 0
0.643678 0.285714 0
0.643678 0.333333 0
0.643678 0.380952 0
0.643678 0.428571 0
0.643678 0.47619 0
0.643678 0.52381 0
0.643678 0.571429 0
0.643678 0.619048 0
0.643678 0.666667 0
0.643678 0.714286 0
0.643678 0.761905 0
0.643678 0.809524 0
0.643678 0.857143 0
0.643678 0.904762 0
0.643678 0.952381 0
0.643678 1 0
0.689655 0 0
0.689655 0.047619 0
0.689655 0.0952381 0
0.689655 0.142857 0
0.689655 0.190476 0
0.689655 0.238095 0
0.689655 0.285714 0
0.689655 0.333333 0
0.689655 0.380952 0
0.689655 0.428571 0
0.689655 0.47619 0
0.689655 0.52381 0
0.689655 0.571429 0
0.689655 0.619048 0
0.689655 0.666667 0
0.689655 0.714286 0
0.689655 0.761905 0
0.689655 0.809524 0
0.689655 0.857143 0
0.689655 0.904762 0
0.689655 0.952381 0
0.689655 1 0
0.735632 0 0
0.735632 0.047619 0
0.735632 0.0952381 0
0.735632 0.142857 0
0.735632 0.190476 0
0.735632 0.238095 0
0.735632 0.285714 0
0.735632 0.333333 0
0.735632 0.380952 0
0.735632 0.428571 0
0.735632 0.47619 0
0.735632 0.52381 0
0.735632 0.571429 0
0.735632 0.619048 0
0.735632 0.666667 0
0.735632 0.714286 0
0.735632 0.761905 0
0.735632 0.809524 0
0.735632 0.857143 0
0.735632 0.904762 0
0.735632 0.952381 0
0.735632 1 0
0.781609 0 0
0.781609 0.047619 0
0.781609 0.0952381 0
0.781609 0.142857 0
0.781609 0.190476 0
0.781609 0.238095 0
0.781609 0.285714 0
0.781609 0.333333 0
0.781609 0.380952 0
0.781609 0.428571 0
0.781609 0.47619 0
0.781609 0.52381 0
0.781609 0.571429 0
0.781609 0.619048 0
0.781609 0.666667 0
0.781609 0.714286 0
0.781609 0.761905 0
0.781609 0.809524 0
0.781609 0.857143 0
0.781609 0.904762 0
0.781609 0.952381 0
0.781609 1 0
0.827586 0 0
0.827586 0.047619 0
0.827586 0.0952381 0
0.827586 0.142857 0
0.827586 0.190476 0
0.827586 0.238095 0
0.827586 0.285714 0
0.827586 0.333333 0
0.827586 0.380952 0
0.827586 0.428571 0
0.827586 0.47619 0
0.827586 0.52381 0
0.827586 0.571429 0
0.827586 0.619048 0
0.827586 0.666667 0
0.827586 0.714286 0
0.827586 0.761905 0
0.827586 0.809524 0
0.827586 0.857143 0
0.827586 0.904762 0
0.827586 0.952381 0
0.827586 1 0
0.873563 0 0
0.873563 0.047619 0
0.873563 0.0952381 0
0.873563 0.142857 0
0.873563 0.190476 0
0.873563 0.238095 0
0.873563 0.285714 0
0.873563 0.333333 0
0.873563 0.380952 0
0.873563 0.428571 0
0.873563 0.47619 0
0.873563 0.52381 0
0.873563 0.571429 0
0.873563 0.619048 0
0.873563 0.666667 0
0.873563 0.714286 0
0.873563 0.761905 0
0.873563 0.809524 0
0.873563 0.857143 0
0.873563 0.904762 0
0.873563 0.952381 0
0.873563 1 0
0.91954 0 0
0.91954 0.047619 0
0.91954 0.0952381 0
0.91954 0.142857 0
0.91954 0.190476 0
0.91954 0.238095 0
0.91954 0.285714 0
0.91954 0.333333 0
0.91954 0.380952 0
0.91954 0.428571 0
0.91954 0.47619 0
0.91954 0.52381 0
0.91954 0.571429 0
0.91954 0.619048 0
0.91954 0.666667 0
0.91954 0.714286 0
0.91954 0.761905 0
0.91954 0.809524 0
0.91954 0.857143 0
0.91954 0.904762 0
0.91954 0.952381 0
0.91954 1 0
0.965517 0 0
0.965517 0.047619 0
0.965517 0.0952381 0
0.965517 0.142857 0
0.965517 0.190476 0
0.965517 0.238095 0
0.965517 0.285714 0
0.965517 0.333333 0
0.965517 0.380952 0
0.965517 0.428571 0
0.965517 0.47619 0
0.965517 0.52381 0
0.965517 0.571429 0
0.965517 0.619048 0
0.965517 0.666667 0
0.965517 0.714286 0
0.965517 0.761905 0
0.965517 0.809524 0
0.965517 0.857143 0
0.965517 0.904762 0
0.965517 0.952381 0
0.965517 1 0
1.01149 0 0
1.01149 0.047619 0
1.01149 0.0952381 0
1.01149 0.142857 0
1.01149 0.190476 0
1.01149 0.238095 0
1.01149 0.285714 0
1.01149 0.333333 0
1.01149 0.380952 0
1.01149 0.428571 0
1.01149 0.47619 0
1.01149 0.52381 0
1.01149 0.571429 0
1.01149 0.619048 0
1.01149 0.666667 0
1.01149 0.714286 0
1.01149 0.761905 0
1.01149 0.809524 0
1.01149 0.857143 0
1.01149 0.904762 0
1.01149 0.952381 0
1.01149 1 0
1.05747 0 0
1.05747 0.047619 0
1.05747 0.0952381 0
1.05747 0.142857 0
1.05747 0.190476 0
1.05747 0.238095 0
1.05747 0.285714 0
1.05747 0.333333 0
1.05747 0.380952 0
1.05747 0.428571 0
1.05747 0.47619 0
1.05747 0.52381 0
1.05747 0.571429 0
1.05747 0.619048 0
1.05747 0.666667 0
1.05747 0.714286 0
1.05747 0.761905 0
1.05747 0.809524 0
1.05747 0.857143 0
1.05747 0.904762 0
1.05747 0.952381 0
1.05747 1 0
1.10345 0 0
1.10345 0.047619 0
1.10345 0.0952381 0
1.10345 0.142857 0
1.10345 0.190476 0
1.10345 0.238095 0
1.10345 0.285714 0
1.10345 0.333333 0
1.10345 0.380952 0
1.10345 0.428571 0
1.10345 0.47619 0
1.10345 0.52381 0
1.10345 0.571429 0
[...]
POINT_DATA 1913
VECTORS velocity[m/s] double
-0 0.209458 0
0 0.209458 0
0 0.209384 0
0 0.18097 0
0 0.150637 0
0 0.121878 0
0 0.094855 0
0 0.0692315 0
0 0.044589 0
0 0.0205131 0
0 -0.00339606 0
0 -0.0275392 0
0 -0.0523444 0
0 -0.0783031 0
0 -0.106017 0
0 -0.136264 0
0 -0.170089 0
0 -0.208916 0
0 -0.254248 0
0 -0.302727 0
0 -0.309882 0
-0.872536 0.185233 0
0.872536 0.00163376 0
1.07484 0.185233 0
1.1022 0.208822 0
1.10406 0.184426 0
1.10254 0.153023 0
1.10086 0.123229 0
1.09951 0.0956514 0
1.09856 0.0697175 0
1.09802 0.0448645 0
1.09786 0.0206192 0
1.09808 -0.00344236 0
1.09872 -0.0277331 0
1.09983 -0.05269 0
1.10153 -0.0788154 0
1.10397 -0.106735 0
1.10743 -0.137288 0
1.11226 -0.17166 0
1.11854 -0.21124 0
1.12158 -0.25506 0
1.08168 -0.286311 0
0.775573 -0.23524 0
-0.695268 0.144679 0
0.695268 0.00129611 0
1.05207 0.144679 0
1.12576 0.189903 0
1.13438 0.178665 0
1.13131 0.151214 0
1.12749 0.122263 0
1.12455 0.0949415 0
1.12256 0.0692195 0
1.12143 0.0445838 0
1.12109 0.0205571 0
1.12153 -0.00327767 0
1.12282 -0.0273155 0
1.12506 -0.0519672 0
1.12849 -0.0776999 0
1.13347 -0.105089 0
1.14061 -0.134875 0
1.15047 -0.167857 0
1.16085 -0.203682 0
1.15175 -0.235347 0
1.03237 -0.234777 0
0.548445 -0.146334 0
-0.55683 0.105546 0
0.55683 0.000944873 0
1.0084 0.105546 0
1.13661 0.161752 0
1.16088 0.16469 0
1.15926 0.144597 0
1.15387 0.118632 0
1.14939 0.0926443 0
1.14635 0.0677468 0
1.14462 0.0437676 0
1.1441 0.0203321 0
1.14474 -0.0029222 0
1.14662 -0.0263398 0
1.1499 -0.0502727 0
1.15493 -0.0751086 0
1.16223 -0.101294 0
1.17246 -0.129276 0
1.18506 -0.158983 0
1.19142 -0.187567 0
1.1512 -0.203103 0
0.946976 -0.176827 0
0.407157 -0.0836943 0
-0.455836 0.0738516 0
0.455836 0.000660517 0
0.954133 0.0738516 0
1.13377 0.132242 0
1.18028 0.146262 0
1.18433 0.134303 0
1.17896 0.112658 0
1.17342 0.0889111 0
1.1695 0.0653992 0
1.16725 0.0424727 0
1.16655 0.0199572 0
1.16735 -0.00241015 0
1.16973 -0.0248962 0
1.17388 -0.0477696 0
1.18021 -0.0713088 0
1.18925 -0.0957748 0
1.20114 -0.121202 0
1.21266 -0.146492 0
1.20642 -0.16667 0
1.12583 -0.167921 0
0.857055 -0.128087 0
0.326348 -0.0478477 0
-0.385169 0.0504912 0
0.385169 0.00045122 0
0.897756 0.0504912 0
1.12024 0.105565 0
1.19183 0.126711 0
1.20523 0.122007 0
1.20189 0.105079 0
1.19613 0.0841043 0
1.19163 0.0623781 0
1.18899 0.0408047 0
1.18815 0.0194628 0
1.18906 -0.00178163 0
1.19181 -0.023102 0
1.19661 -0.044673 0
1.20384 -0.0666508 0
1.2138 -0.0890898 0
1.22556 -0.111587 0
1.23214 -0.132129 0
1.20763 -0.144476 0
1.08737 -0.135512 0
0.779582 -0.0918518 0
0.280151 -0.0286816 0
-0.336855 0.0343597 0
0.336855 0.000306838 0
0.844581 0.0343597 0
1.09982 0.0833343 0
1.19637 0.108164 0
1.22157 0.109174 0
1.22214 0.0967034 0
1.2171 0.0786641 0
1.21246 0.0589326 0
1.2096 0.0388951 0
1.20866 0.0188906 0
1.20965 -0.00107643 0
1.21264 -0.0210829 0
1.21783 -0.0412106 0
1.2255 -0.0614971 0
1.23552 -0.0817956 0
1.24539 -0.101307 0
1.24406 -0.117347 0
1.19897 -0.123262 0
1.04522 -0.108117 0
0.71859 -0.0663144 0
0.252458 -0.0183264 0
-0.303976 0.0237115 0
0.303976 0.000211601 0
0.797296 0.0237115 0
1.07585 0.0656949 0
1.1954 0.0916811 0
1.23361 0.0968082 0
1.23956 0.0882041 0
1.23615 0.0729976 0
1.23181 0.0553047 0
1.22891 0.0368754 0
1.22794 0.0182845 0
1.22897 -0.000330152 0
1.23207 -0.0189558 0
1.23742 -0.0375913 0
1.2451 -0.0561679 0
1.25436 -0.0743597 0
1.26088 -0.0910445 0
1.24977 -0.103133 0
1.18435 -0.104196 0
1.00486 -0.0860043 0
0.672257 -0.048628 0
0.234764 -0.0124274 0
-0.281287 0.0168574 0
0.281287 0.00015033 0
0.75676 0.0168574 0
1.05076 0.0521027 0
1.19045 0.077604 0
1.24192 0.0854749 0
1.25424 0.0800464 0
1.25324 0.0674206 0
1.2496 0.051694 0
1.24686 0.0348576 0
1.24591 0.0176833 0
1.24695 0.000427535 0
1.25007 -0.0168191 0
1.25535 -0.0339859 0
1.26266 -0.0509143 0
1.27047 -0.0671268 0
1.27255 -0.0812603 0
1.2508 -0.090052 0
1.16679 -0.0876949 0
0.968769 -0.068588 0
0.637305 -0.0363557 0
0.222765 -0.00883903 0
-0.265156 0.0124641 0
0.265156 0.000111077 0
0.72273 0.0124641 0
1.02614 0.0417887 0
1.18285 0.0658672 0
1.24716 0.0754152 0
1.26643 0.0725029 0
1.26842 0.0621441 0
1.26586 0.0482429 0
1.26344 0.0329248 0
1.26257 0.0171156 0
1.2636 0.00117319 0
1.26664 -0.0147476 0
1.2717 -0.0305203 0
1.27832 -0.0459122 0
1.28412 -0.060323 0
1.28104 -0.072225 0
1.24853 -0.078362 0
1.14834 -0.0737477 0
0.937648 -0.0550342 0
0.610737 -0.0277405 0
0.214231 -0.0065253 0
-0.253229 0.00960455 0
0.253229 8.55432e-05 0
0.694417 0.00960455 0
1.00289 0.0340021 0
1.17363 0.056215 0
1.24997 0.0666647 0
1.27643 0.0656985 0
1.28184 0.0572873 0
1.28065 0.045039 0
1.27871 0.0311296 0
1.27797 0.0165992 0
1.27897 0.00188909 0
1.28187 -0.0127933 0
1.28656 -0.0272777 0
1.29223 -0.041271 0
1.29561 -0.0540757 0
1.28697 -0.0640666 0
1.24407 -0.0681216 0
1.13027 -0.0621331 0
0.911296 -0.0445345 0
0.590254 -0.0215974 0
0.207931 -0.00496652 0
-0.244039 0.00768622 0
0.244039 6.84239e-05 0
0.670861 0.00768621 0
0.981442 0.0281099 0
1.16354 0.0483307 0
1.2509 0.0591461 0
1.28455 0.0596594 0
1.29367 0.0528992 0
1.29408 0.0421245 0
1.29274 0.0294986 0
1.29217 0.0161416 0
1.29315 0.0025624 0
1.29585 -0.0109884 0
1.30007 -0.0243055 0
1.3046 -0.0370464 0
1.30526 -0.0484395 0
1.29088 -0.0568167 0
1.23829 -0.059273 0
1.11328 -0.0525494 0
0.88915 -0.0364012 0
0.574196 -0.0171448 0
0.203136 -0.00388299 0
-0.236684 0.00634958 0
0.236684 5.65029e-05 0
0.651141 0.00634957 0
0.961919 0.023618 0
1.1531 0.0419029 0
1.25041 0.0527297 0
1.29108 0.0543524 0
1.30407 0.0489819 0
1.30627 0.0395087 0
1.30563 0.0280384 0
1.30528 0.0157423 0
1.30623 0.00318439 0
1.30871 -0.00934909 0
1.31237 -0.0216235 0
1.3156 -0.0332554 0
1.31334 -0.0434187 0
1.29325 -0.0504464 0
1.2318 -0.0516981 0
1.09769 -0.0446833 0
0.870558 -0.030084 0
0.561392 -0.0138669 0
0.199387 -0.00311246 0
-0.230608 0.00538176 0
0.230608 4.7876e-05 0
0.634468 0.00538175 0
0.944264 0.0201568 0
1.14264 0.0366553 0
1.24884 0.0472698 0
1.29626 0.049714 0
1.31322 0.0455088 0
1.31735 0.0371792 0
1.31751 0.0267418 0
1.31741 0.0153959 0
1.31834 0.00374958 0
1.32056 -0.00787981 0
1.3236 -0.019232 0
1.32541 -0.0298887 0
1.32013 -0.0389865 0
1.29446 -0.0448929 0
1.22502 -0.0452533 0
1.08359 -0.0382433 0
0.8549 -0.0251556 0
0.551009 -0.0114195 0
0.196382 -0.00255472 0
-0.225458 0.00465642 0
0.225458 4.14134e-05 0
0.620203 0.00465641 0
0.928335 0.017456 0
1.1324 0.032355 0
1.24648 0.0426243 0
1.30033 0.0456681 0
1.32126 0.0424385 0
1.32742 0.0351114 0
1.32846 0.0255937 0
1.32865 0.0150939 0
1.32956 0.00425517 0
1.33152 -0.00657693 0
1.33389 -0.0171183 0
1.33419 -0.0269209 0
1.32583 -0.0350981 0
1.29481 -0.0400768 0
1.21826 -0.0397906 0
1.07096 -0.0329738 0
0.841638 -0.0212895 0
0.54245 -0.00956855 0
0.193915 -0.00214497 0
-0.221002 0.00409675 0
0.221002 3.64287e-05 0
0.607845 0.00409674 0
0.91395 0.0153201 0
1.12248 0.0288114 0
1.24354 0.0386635 0
1.30344 0.0421371 0
1.32834 0.0397239 0
1.33661 0.033275 0
1.3386 0.0245751 0
1.33912 0.0148265 0
1.34002 0.00470044 0
1.3417 -0.00543157 0
1.34336 -0.0152623 0
1.34209 -0.0243177 0
1.33064 -0.0317003 0
1.29453 -0.0359135 0
1.21167 -0.0351692 0
1.05968 -0.0286573 0
0.830321 -0.0182377 0
0.535282 -0.00815222 0
0.191845 -0.00183992 0
-0.217082 0.00365425 0
0.217082 3.24888e-05 0
0.597009 0.00365424 0
0.900924 0.0136072 0
1.11297 0.0258714 0
1.24019 0.0352745 0
1.30577 0.039048 0
1.33456 0.0373178 0
1.34501 0.0316387 0
1.34801 0.023666 0
1.34889 0.0145844 0
1.34981 0.00508633 0
1.35119 -0.0044318 0
1.3521 -0.0136398 0
1.34922 -0.0220413 0
1.33471 -0.0287375 0
1.29382 -0.0323201 0
1.20539 -0.031261 0
1.04962 -0.0251132 0
0.820583 -0.0158121 0
0.529188 -0.00705629 0
0.190068 -0.00160989 0
-0.213586 0.00329694 0
0.213586 2.93081e-05 0
0.587399 0.00329693 0
0.889083 0.0122141 0
1.10389 0.023413 0
1.23655 0.0323604 0
1.30744 0.0363347 0
1.34005 0.0351761 0
1.35271 0.0301722 0
1.35678 0.0228473 0
1.35806 0.0143588 0
1.359 0.00541497 0
1.36008 -0.00356423 0
1.36021 -0.0122257 0
1.35568 -0.0200533 0
1.33817 -0.0261558 0
1.29279 -0.0292194 0
1.19945 -0.0279529 0
1.04064 -0.0221934 0
0.812129 -0.0138701 0
0.523929 -0.00619897 0
0.188514 -0.00143416 0
-0.210431 0.00300293 0
0.210431 2.66915e-05 0
0.57879 0.00300292 0
0.87827 0.0110652 0
1.09525 0.0213394 0
1.23271 0.0298402 0
1.30856 0.0339399 0
1.34488 0.0332591 0
1.35978 0.0288484 0
1.36498 0.022102 0
1.3667 0.0141426 0
1.36766 0.0056894 0
1.36845 -0.00281509 0
1.36777 -0.010995 0
1.36157 -0.0183174 0
1.34113 -0.023905 0
1.29157 -0.0265412 0
1.19389 -0.0251473 0
1.0326 -0.0197774 0
0.804723 -0.0123029 0
0.519329 -0.00552083 0
0.187129 -0.00129804 0
-0.207557 0.00275675 0
0.207558 2.4501e-05 0
0.571005 0.00275674 0
0.86835 0.0101046 0
1.08704 0.0195745 0
1.22875 0.0276464 0
1.30922 0.031814 0
1.34914 0.0315325 0
1.3663 0.0276438 0
1.37266 0.0214154 0
1.37486 0.01393 0
1.37588 0.00591328 0
1.37635 -0.00217091 0
1.37484 -0.00992429 0
1.36697 -0.0167999 0
1.34367 -0.0219396 0
1.29023 -0.0242236 0
1.18871 -0.0227609 0
1.02538 -0.0177678 0
0.798175 -0.0110274 0
0.515252 -0.00497818 0
0.185876 -0.00119097 0
-0.20492 0.00254729 0
0.20492 2.26375e-05 0
0.563911 0.00254728 0
0.859207 0.00929063 0
1.07925 0.0180581 0
1.22473 0.0257235 0
1.30949 0.0299153 0
1.35289 0.0299671 0
1.37231 0.0265383 0
1.37989 0.0207753 0
1.3826 0.0137166 0
1.38368 0.00609065 0
1.38383 -0.00161897 0
1.38148 -0.00899223 0
1.37193 -0.0154705 0
1.34588 -0.0202191 0
1.28881 -0.0222125 0
1.18389 -0.0207233 0
1.01887 -0.0160863 0
0.792334 -0.00997996 0
0.511595 -0.00453864 0
0.184726 -0.00110532 0
-0.202482 0.00236639 0
0.202482 2.10285e-05 0
0.5574 0.00236638 0
0.850742 0.0085921 0
1.07185 0.0167428 0
1.22068 0.0240261 0
1.30944 0.0282088 0
1.3562 0.0285382 0
1.37788 0.0255153 0
1.3867 0.0201718 0
1.38996 0.0134995 0
1.39113 0.00622573 0
1.39095 -0.00114751 0
1.38773 -0.00817959 0
1.37652 -0.0143027 0
1.3478 -0.0187084 0
1.28738 -0.0204615 0
1.17941 -0.0189758 0
1.01298 -0.0146699 0
0.787081 -0.00911154 0
0.50828 -0.004178 0
0.183659 -0.00103552 0
-0.200218 0.00220804 0
0.200218 1.96202e-05 0
0.55139 0.00220803 0
0.842873 0.0079854 0
1.06482 0.0155913 0
1.21664 0.0225168 0
1.30912 0.0266656 0
1.35912 0.0272255 0
1.38303 0.0245614 0
1.39315 0.0195973 0
1.39699 0.0132766 0
1.39824 0.00632281 0
1.39774 -0.000745857 0
1.39365 -0.00746937 0
1.38077 -0.013273 0
1.34949 -0.0173768 0
1.28594 -0.0189306 0
1.17525 -0.0174693 0
1.00761 -0.0134682 0
0.782318 -0.00838422 0
0.505246 -0.00387806 0
0.18266 -0.000977517 0
-0.198105 0.00206777 0
0.198105 1.83728e-05 0
0.545811 0.00206775 0
0.835529 0.00745257 0
1.05813 0.0145743 0
1.21264 0.0211654 0
1.30858 0.0252616 0
1.36169 0.0260123 0
1.38783 0.0236658 0
1.39925 0.0190459 0
1.4037 0.0130471 0
1.40507 0.00638611 0
1.40423 -0.000404439 0
1.39925 -0.00684675 0
1.38473 -0.0123614 0
1.35099 -0.0161981 0
1.28453 -0.0175861 0
1.17139 -0.0161632 0
1.0027 -0.0124407 0
0.777967 -0.00776865 0
0.502446 -0.00362509 0
0.181716 -0.000928307 0
-0.196126 0.0019422 0
0.196127 1.72563e-05 0
0.540612 0.00194218 0
0.828653 0.00697988 0
1.05177 0.0136685 0
1.20868 0.0199475 0
1.30786 0.0239769 0
1.36396 0.0248848 0
1.39229 0.0228199 0
1.40504 0.0185133 0
1.41013 0.0128107 0
1.41163 0.00641971 0
1.41045 -0.000114746 0
1.40458 -0.00629884 0
1.38844 -0.0115506 0
1.35233 -0.0151498 0
1.28316 -0.0163995 0
1.16779 -0.0150239 0
0.998193 -0.011555 0
0.773966 -0.00724199 0
0.499842 -0.00340867 0
0.18082 -0.000885699 0
-0.194268 0.0018288 0
0.194268 1.6248e-05 0
0.535749 0.00182878 0
0.822195 0.00655677 0
1.04571 0.0128554 0
1.20479 0.0188428 0
1.30698 0.0227954 0
1.36595 0.023832 0
1.39645 0.0220169 0
1.41055 0.0179964 0
1.4163 0.0125677 0
1.41794 0.00642749 0
1.41642 0.000130733 0
1.40965 -0.00581457 0
1.39191 -0.0108257 0
1.35354 -0.0142129 0
1.28183 -0.0153465 0
1.16444 -0.0140237 0
0.994029 -0.0107852 0
0.770265 -0.00678644 0
0.497407 -0.00322087 0
0.179965 -0.000848077 0
-0.192518 0.00172561 0
0.192519 1.53307e-05 0
0.531184 0.00172559 0
0.816114 0.00617502 0
1.03992 0.0121205 0
1.20098 0.0178353 0
1.30598 0.0217036 0
1.36771 0.0228447 0
1.40033 0.0212518 0
1.41579 0.0174931 0
1.42223 0.012319 0
1.42402 0.00641308 0
1.42216 0.00033859 0
1.41448 -0.00538441 0
1.39518 -0.0101742 0
1.35464 -0.0133712 0
1.28055 -0.014407 0
1.16132 -0.0131398 0
0.990168 -0.0101102 0
0.766823 -0.00638807 0
0.495116 -0.00305564 0
0.179146 -0.000814255 0
-0.190867 0.00163114 0
0.190867 1.4491e-05 0
0.526888 0.00163112 0
0.810373 0.00582823 0
1.03441 0.0114522 0
1.19724 0.0169117 0
1.30488 0.0206905 0
1.36924 0.0219156 0
1.40396 0.0205203 0
1.42078 0.017002 0
1.42793 0.0120654 0
1.42988 0.00637985 0
1.42769 0.000514588 0
1.41911 -0.0050002 0
1.39827 -0.00958541 0
1.35564 -0.0126108 0
1.27933 -0.0135639 0
1.15839 -0.0123533 0
0.986574 -0.00951339 0
0.763605 -0.00603596 0
0.492952 -0.00290837 0
0.17836 -0.000783358 0
-0.189306 0.00154421 0
0.189307 1.37183e-05 0
0.522836 0.00154419 0
0.804944 0.00551135 0
1.02914 0.0108409 0
1.19359 0.016061 0
1.3037 0.019747 0
1.37059 0.0210388 0
1.40736 0.0198195 0
1.42555 0.0165224 0
1.43342 0.0118082 0
1.43554 0.00633091 0
1.43301 0.000663743 0
1.42354 -0.004655 0
1.40119 -0.00905022 0
1.35656 -0.0119203 0
1.27816 -0.012803 0
1.15565 -0.0116487 0
0.983217 -0.00898121 0
0.760586 -0.00572153 0
0.4909 -0.00277548 0
0.177604 -0.000754745 0
-0.187829 0.00146391 0
0.187829 1.30045e-05 0
0.519005 0.00146388 0
0.799798 0.00522036 0
1.0241 0.0102793 0
1.19003 0.0152745 0
1.30245 0.0188657 0
1.37177 0.0202093 0
1.41054 0.019147 0
1.4301 0.0160539 0
1.43871 0.0115487 0
1.44102 0.00626908 0
1.43815 0.000790413 0
1.42778 -0.00434287 0
1.40396 -0.00856094 0
1.35741 -0.0112897 0
1.27704 -0.0121122 0
1.15308 -0.0110131 0
0.98007 -0.00850275 0
0.757741 -0.00543799 0
0.488949 -0.00265425 0
0.176875 -0.000727943 0
-0.186428 0.00138947 0
0.186429 1.2343e-05 0
0.515379 0.00138944 0
0.794914 0.00495202 0
1.01927 0.00976112 0
1.18657 0.0145447 0
1.30115 0.0180402 0
1.37279 0.0194231 0
1.41353 0.018501 0
1.43445 0.0155964 0
1.44381 0.0112881 0
1.44631 0.00619691 0
1.44311 0.000898371 0
1.43185 -0.00405877 0
1.4066 -0.00811104 0
1.3582 -0.0107107 0
1.27598 -0.0114814 0
1.15065 -0.010436 0
0.977111 -0.00806919 0
0.755054 -0.00517997 0
0.487089 -0.00254255 0
0.176172 -0.000702604 0
-0.185099 0.00132029 0
0.185099 1.17281e-05 0
0.511939 0.00132026 0
0.79027 0.00470371 0
1.01465 0.00928132 0
1.18319 0.0138655 0
1.29982 0.0172652 0
1.37368 0.0186769 0
1.41633 0.01788 0
1.43861 0.01515 0
1.44873 0.0110278 0
1.45142 0.00611668 0
1.44789 0.000990874 0
1.43577 -0.0037984 0
1.40911 -0.00769498 0
1.35895 -0.0101763 0
1.27497 -0.0109023 0
1.14837 -0.00990863 0
0.974321 -0.00767335 0
0.752507 -0.00494319 0
0.485313 -0.00243874 0
0.175494 -0.00067847 0
-0.183836 0.00125586 0
0.183836 1.11556e-05 0
0.508672 0.00125583 0
0.785851 0.00447324 0
1.01023 0.00883574 0
1.17991 0.0132318 0
1.29846 0.0165362 0
1.37445 0.0179678 0
1.41897 0.017283 0
1.44259 0.014715 0
1.45347 0.010769 0
1.45637 0.00603041 0
1.45252 0.00107073 0
1.43953 -0.0035581 0
1.4115 -0.00730805 0
1.35965 -0.00968045 0
1.27402 -0.0103677 0
1.14621 -0.00942368 0
0.971685 -0.0073094 0
0.750089 -0.00472423 0
0.483614 -0.00234152 0
0.174839 -0.00065535 0
-0.182634 0.00119574 0
0.182634 1.06214e-05 0
0.505566 0.00119572 0
0.781639 0.00425882 0
1.00598 0.00842087 0
1.17672 0.0126392 0
1.29707 0.0158495 0
1.37512 0.0172933 0
1.42145 0.0167089 0
1.4464 0.0142915 0
1.45804 0.0105127 0
1.46116 0.0059399 0
1.45699 0.00114033 0
1.44315 -0.00333478 0
1.41379 -0.00694626 0
1.36031 -0.00921805 0
1.2731 -0.00987147 0
1.14417 -0.00897511 0
0.969189 -0.00697258 0
0.747789 -0.00452036 0
0.481986 -0.00224989 0
0.174207 -0.000633103 0
-0.18149 0.00113958 0
0.18149 1.01223e-05 0
0.502609 0.00113955 0
0.77762 0.00405891 0
1.00191 0.00803374 0
1.17362 0.0120841 0
1.29568 0.0152018 0
1.37568 0.0166515 0
1.42378 0.016157 0
1.45005 0.0138799 0
1.46246 0.0102599 0
1.46579 0.00584669 0
1.46131 0.00120175 0
1.44664 -0.00312581 0
1.41599 -0.00660621 0
1.36094 -0.00878479 0
1.27224 -0.00940864 0
1.14223 -0.0085579 0
0.966822 -0.00665895 0
0.745597 -0.00432935 0
0.480425 -0.00216305 0
0.173595 -0.000611621 0
-0.1804 0.00108704 0
0.1804 9.65538e-06 0
0.49979 0.00108701 0
0.773783 0.00387218 0
0.998001 0.00767182 0
1.17061 0.0115631 0
1.29428 0.01459 0
1.37616 0.0160403 0
1.42598 0.0156267 0
1.45355 0.0134804 0
1.46672 0.0100117 0
1.47028 0.00575212 0
1.46549 0.00125671 0
1.45 -0.00292895 0
1.41809 -0.00628501 0
1.36155 -0.00837698 0
1.27142 -0.00897489 0
1.1404 -0.00816783 0
0.964573 -0.00636531 0
0.743506 -0.00414941 0
0.478927 -0.00208035 0
0.173005 -0.000590822 0
-0.17936 0.00103783 0
0.17936 9.21814e-06 0
0.497101 0.0010378 0
0.770114 0.00369751 0
0.994244 0.00733288 0
1.16769 0.0110735 0
1.29288 0.0140117 0
1.37656 0.0154581 0
1.42805 0.0151172 0
1.4569 0.0130932 0
1.47083 0.00976863 0
1.47462 0.00565734 0
1.46953 0.00130671 0
1.45324 -0.00274233 0
1.42011 -0.00598022 0
1.36212 -0.00799148 0
1.27064 -0.00856656 0
1.13866 -0.00780137 0
0.962433 -0.00608899 0
0.741508 -0.00397907 0
0.477489 -0.00200129 0
0.172435 -0.000570642 0
-0.178367 0.000991699 0
0.178367 8.80826e-06 0
0.494533 0.00099167 0
0.766604 0.00353387 0
0.990632 0.007015 0
1.16485 0.0106127 0
1.29148 0.0134644 0
1.37689 0.0149034 0
1.43001 0.0146279 0
1.46011 0.0127184 0
1.4748 0.00953141 0
1.47882 0.00556329 0
1.47344 0.00135296 0
1.45636 -0.00256437 0
1.42205 -0.00568975 0
1.36268 -0.00762561 0
1.2699 -0.00818056 0
1.13701 -0.00745556 0
0.960396 -0.00582775 0
0.739598 -0.00381711 0
0.476108 -0.00192543 0
0.171884 -0.00055103 0
-0.177418 0.000948412 0
0.177418 8.42364e-06 0
0.492079 0.000948382 0
0.763243 0.00338037 0
0.987159 0.00671644 0
1.1621 0.0101786 0
1.29009 0.0129462 0
1.37715 0.0143746 0
1.43185 0.0141582 0
1.46318 0.012356 0
1.47863 0.0093005 0
1.48288 0.00547076 0
1.47722 0.00139648 0
1.45938 -0.00239375 0
1.42392 -0.00541184 0
1.36321 -0.00727709 0
1.2692 -0.00781427 0
1.13544 -0.00712788 0
0.958455 -0.00557976 0
0.737772 -0.00366254 0
0.474781 -0.00185243 0
0.171352 -0.000531943 0
-0.17651 0.000907751 0
0.176511 8.06237e-06 0
0.489731 0.000907721 0
0.760023 0.0032362 0
0.983816 0.00643568 0
1.15943 0.00976915 0
1.28872 0.0124551 0
1.37736 0.0138704 0
1.43359 0.0137073 0
1.46613 0.012006 0
1.48233 0.00907627 0
1.48682 0.00538034 0
1.48088 0.0014381 0
1.46229 -0.00222938 0
1.42572 -0.005145 0
1.36373 -0.00694396 0
1.26854 -0.00746542 0
1.13394 -0.00681621 0
0.956604 -0.00534344 0
0.736025 -0.00351451 0
0.473506 -0.001782 0
0.170838 -0.000513345 0
-0.175642 0.000869519 0
0.175643 7.72268e-06 0
0.487483 0.000869489 0
0.756934 0.00310062 0
0.980598 0.00617129 0
1.15683 0.00938246 0
1.28735 0.0119892 0
1.37752 0.0133895 0
1.43523 0.0132746 0
1.46896 0.0116682 0
1.4859 0.00885893 0
1.49063 0.00529252 0
1.48442 0.00147846 0
1.46511 -0.00207036 0
1.42746 -0.00488797 0
1.36424 -0.00662457 0
1.26791 -0.00713211 0
1.13252 -0.00651876 0
0.954839 -0.00511748 0
0.734352 -0.00337231 0
0.472281 -0.00171389 0
0.170343 -0.000495204 0
-0.17481 0.00083353 0
0.174811 7.40293e-06 0
0.485329 0.0008335 0
0.753969 0.00297294 0
0.977497 0.00592198 0
1.15432 0.00901685 0
1.286 0.0115469 0
1.37763 0.0129305 0
1.43678 0.0128594 0
1.47167 0.0113424 0
1.48934 0.00864861 0
1.49431 0.0052076 0
1.48785 0.00151804 0
1.46783 -0.00191597 0
1.42914 -0.00463971 0
1.36473 -0.00631749 0
1.26732 -0.0068127 0
1.13117 -0.00623398 0
0.953154 -0.00490076 0
0.732751 -0.00323533 0
0.471105 -0.00164789 0
0.169865 -0.000477489 0
-0.174013 0.00079961 0
0.174013 7.10158e-06 0
0.483263 0.000799581 0
0.751122 0.00285255 0
0.974509 0.00568658 0
1.15187 0.00867072 0
1.28466 0.0111266 0
1.3777 0.0124922 0
1.43825 0.0124608 0
1.47428 0.0110282 0
1.49267 0.00844527 0
1.49787 0.00512577 0
1.49116 0.00155721 0
1.47046 -0.00176566 0
1.43076 -0.00439935 0
1.3652 -0.00602153 0
1.26676 -0.00650578 0
1.12988 -0.00596057 0
0.951546 -0.00469233 0
0.731218 -0.00310307 0
0.469975 -0.0015838 0
0.169404 -0.000460171 0
-0.173248 0.000767596 0
0.173248 6.81716e-06 0
0.481281 0.000767568 0
0.748385 0.00273884 0
0.971628 0.00546395 0
1.1495 0.00834258 0
1.28334 0.0107266 0
1.37773 0.0120732 0
1.43963 0.012078 0
1.47677 0.0107252 0