# vtk DataFile Version 3.0
vtk output
ASCII
DATASET UNSTRUCTURED_GRID
POINTS 1913 double
0.045977 0 0
0.045977 0.0952381 0
0.045977 0.142857 0
0.045977 0.190476 0
0.045977 0.238095 0
0.045977 0.285714 0
0.045977 0.333333 0
0.045977 0.380952 0
0.045977 0.428571 0
0.045977 0.47619 0
0.045977 0.52381 0
0.045977 0.571429 0
0.045977 0.619048 0
0.045977 0.666667 0
0.045977 0.714286 0
0.045977 0.761905 0
0.045977 0.809524 0
0.045977 0.857143 0
0.045977 0.904762 0
0.045977 0.952381 0
0.045977 1 0
0.091954 0 0
0.091954 0.047619 0
0.091954 0.0952381 0
0.091954 0.142857 0
0.091954 0.190476 0
0.091954 0.238095 0
0.091954 0.285714 0
0.091954 0.333333 0
0.091954 0.380952 0
0.091954 0.428571 0
0.091954 0.47619 0
0.091954 0.52381 0
0.091954 0.571429 0
0.091954 0.619048 0
0.091954 0.666667 0
0.091954 0.714286 0
0.091954 0.761905 0
0.091954 0.809524 0
0.091954 0.857143 0
0.091954 0.904762 0
0.091954 0.952381 0
0.091954 1 0
0.137931 0 0
0.137931 0.047619 0
0.137931 0.0952381 0
0.137931 0.142857 0
0.137931 0.190476 0
0.137931 0.238095 0
0.137931 0.285714 0
0.137931 0.333333 0
0.137931 0.380952 0
0.137931 0.428571 0
0.137931 0.47619 0
0.137931 0.52381 0
0.137931 0.571429 0
0.137931 0.619048 0
0.137931 0.666667 0
0.137931 0.714286 0
0.137931 0.761905 0
0.137931 0.809524 0
0.137931 0.857143 0
0.137931 0.904762 0
0.137931 0.952381 0
0.137931 1 0
0.183908 0 0
0.183908 0.047619 0
0.183908 0.0952381 0
0.183908 0.142857 0
0.183908 0.190476 0
0.183908 0.238095 0
0.183908 0.285714 0
0.183908 0.333333 0
0.183908 0.380952 0
0.183908 0.428571 0
0.183908 0.47619 0
0.183908 0.52381 0
0.183908 0.571429 0
0.183908 0.619048 0
0.183908 0.666667 0
0.183908 0.714286 0
0.183908 0.761905 0
0.183908 0.809524 0
0.183908 0.857143 0
0.183908 0.904762 0
0.183908 0.952381 0
0.183908 1 0
0.229885 0 0
0.229885 0.047619 0
0.229885 0.0952381 0
0.229885 0.142857 0
0.229885 0.190476 0
0.229885 0.238095 0
0.229885 0.285714 0
0.229885 0.333333 0
0.229885 0.380952 0
0.229885 0.428571 0
0.229885 0.47619 0
0.229885 0.52381 0
0.229885 0.571429 0
0.229885 0.619048 0
0.229885 0.666667 0
0.229885 0.714286 0
0.229885 0.761905 0
0.229885 0.809524 0
0.229885 0.857143 0
0.229885 0.904762 0
0.229885 0.952381 0
0.229885 1 0
0.275862 0 0
0.275862 0.047619 0
0.275862 0.0952381 0
0.275862 0.142857 0
0.275862 0.190476 0
0.275862 0.238095 0
0.275862 0.285714 0
0.275862 0.333333 0
0.275862 0.380952 0
0.275862 0.428571 0
0.275862 0.47619 0
0.275862 0.52381 0
0.275862 0.571429 0
0.275862 0.619048 0
0.275862 0.666667 0
0.275862 0.714286 0
0.275862 0.761905 0
0.275862 0.809524 0
0.275862 0.857143 0
0.275862 0.904762 0
0.275862 0.952381 0
0.275862 1 0
0.321839 0 0
0.321839 0.047619 0
0.321839 0.0952381 0
0.321839 0.142857 0
0.321839 0.190476 0
0.321839 0.238095 0
0.321839 0.285714 0
0.321839 0.333333 0
0.321839 0.380952 0
0.321839 0.428571 0
0.321839 0.47619 0
0.321839 0.52381 0
0.321839 0.571429 0
0.321839 0.619048 0
0.321839 0.666667 0
0.321839 0.714286 0
0.321839 0.761905 0
0.321839 0.809524 0
0.321839 0.857143 0
0.321839 0.904762 0
0.321839 0.952381 0
0.321839 1 0
0.367816 0 0
0.367816 0.047619 0
0.367816 0.0952381 0
0.367816 0.142857 0
0.367816 0.190476 0
0.367816 0.238095 0
0.367816 0.285714 0
0.367816 0.333333 0
0.367816 0.380952 0
0.367816 0.428571 0
0.367816 0.47619 0
0.367816 0.52381 0
0.367816 0.571429 0
0.367816 0.619048 0
0.367816 0.666667 0
0.367816 0.714286 0
0.367816 0.761905 0
0.367816 0.809524 0
0.367816 0.857143 0
0.367816 0.904762 0
0.367816 0.952381 0
0.367816 1 0
0.413793 0 0
0.413793 0.047619 0
0.413793 0.0952381 0
0.413793 0.142857 0
0.413793 0.190476 0
0.413793 0.238095 0
0.413793 0.285714 0
0.413793 0.333333 0
0.413793 0.380952 0
0.413793 0.428571 0
0.413793 0.47619 0
0.413793 0.52381 0
0.413793 0.571429 0
0.413793 0.619048 0
0.413793 0.666667 0
0.413793 0.714286 0
0.413793 0.761905 0
0.413793 0.809524 0
0.413793 0.857143 0
0.413793 0.904762 0
0.413793 0.952381 0
0.413793 1 0
0.45977 0 0
0.45977 0.047619 0
0.45977 0.0952381 0
0.45977 0.142857 0
0.45977 0.190476 0
0.45977 0.238095 0
0.45977 0.285714 0
0.45977 0.333333 0
0.45977 0.380952 0
0.45977 0.428571 0
0.45977 0.47619 0
0.45977 0.52381 0
0.45977 0.571429 0
0.45977 0.619048 0
0.45977 0.666667 0
0.45977 0.714286 0
0.45977 0.761905 0
0.45977 0.809524 0
0.45977 0.857143 0
0.45977 0.904762 0
0.45977 0.952381 0
0.45977 1 0
0.505747 0 0
0.505747 0.047619 0
0.505747 0.0952381 0
0.505747 0.142857 0
0.505747 0.190476 0
0.505747 0.238095 0
0.505747 0.285714 0
0.505747 0.333333 0
0.505747 0.380952 0
0.505747 0.428571 0
0.505747 0.47619 0
0.505747 0.52381 0
0.505747 0.571429 0
0.505747 0.619048 0
0.505747 0.666667 0
0.505747 0.714286 0
0.505747 0.761905 0
0.505747 0.809524 0
0.505747 0.857143 0
0.505747 0.904762 0
0.505747 0.952381 0
0.505747 1 0
0.551724 0 0
0.551724 0.047619 0
0.551724 0.0952381 0
0.551724 0.142857 0
0.551724 0.190476 0
0.551724 0.238095 0
0.551724 0.285714 0
0.551724 0.333333 0
0.551724 0.380952 0
0.551724 0.428571 0
0.551724 0.47619 0
0.551724 0.52381 0
0.551724 0.571429 0
0.551724 0.619048 0
0.551724 0.666667 0
0.551724 0.714286 0
0.551724 0.761905 0
0.551724 0.809524 0
0.551724 0.857143 0
0.551724 0.904762 0
0.551724 0.952381 0
0.551724 1 0
0.597701 0 0
0.597701 0.047619 0
0.597701 0.0952381 0
0.597701 0.142857 0
0.597701 0.190476 0
0.597701 0.238095 0
0.597701 0.285714 0
0.597701 0.333333 0
0.597701 0.380952 0
0.597701 0.428571 0
0.597701 0.47619 0
0.597701 0.52381 0
0.597701 0.571429 0
0.597701 0.619048 0
0.597701 0.666667 0
0.597701 0.714286 0
0.597701 0.761905 0
0.597701 0.809524 0
0.597701 0.857143 0
0.597701 0.904762 0
0.597701 0.952381 0
0.597701 1 0
0.643678 0 0
0.643678 0.047619 0
0.643678 0.0952381 0
0.643678 0.142857 0
0.643678 0.190476 0
0.643678 0.238095 0
0.643678 0.285714 0
0.643678 0.333333 0
0.643678 0.380952 0
0.643678 0.428571 0
0.643678 0.47619 0
0.643678 0.52381 0
0.643678 0.571429 0
0.643678 0.619048 0
0.643678 0.666667 0
0.643678 0.714286 0
0.643678 0.761905 0
0.643678 0.809524 0
0.643678 0.857143 0
0.643678 0.904762 0
0.643678 0.952381 0
0.643678 1 0
0.689655 0 0
0.689655 0.047619 0
0.689655 0.0952381 0
0.689655 0.142857 0
0.689655 0.190476 0
0.689655 0.238095 0
0.689655 0.285714 0
0.689655 0.333333 0
0.689655 0.380952 0
0.689655 0.428571 0
0.689655 0.47619 0
0.689655 0.52381 0
0.689655 0.571429 0
0.689655 0.619048 0
0.689655 0.666667 0
0.689655 0.714286 0
0.689655 0.761905 0
0.689655 0.809524 0
0.689655 0.857143 0
0.689655 0.904762 0
0.689655 0.952381 0
0.689655 1 0
0.735632 0 0
0.735632 0.047619 0
0.735632 0.0952381 0
0.735632 0.142857 0
0.735632 0.190476 0
0.735632 0.238095 0
0.735632 0.285714 0
0.735632 0.333333 0
0.735632 0.380952 0
0.735632 0.428571 0
0.735632 0.47619 0
0.735632 0.52381 0
0.735632 0.571429 0
0.735632 0.619048 0
0.735632 0.666667 0
0.735632 0.714286 0
0.735632 0.761905 0
0.735632 0.809524 0
0.735632 0.857143 0
0.735632 0.904762 0
0.735632 0.952381 0
0.735632 1 0
0.781609 0 0
0.781609 0.047619 0
0.781609 0.0952381 0
0.781609 0.142857 0
0.781609 0.190476 0
0.781609 0.238095 0
0.781609 0.285714 0
0.781609 0.333333 0
0.781609 0.380952 0
0.781609 0.428571 0
0.781609 0.47619 0
0.781609 0.52381 0
0.781609 0.571429 0
0.781609 0.619048 0
0.781609 0.666667 0
0.781609 0.714286 0
0.781609 0.761905 0
0.781609 0.809524 0
0.781609 0.857143 0
0.781609 0.904762 0
0.781609 0.952381 0
0.781609 1 0
0.827586 0 0
0.827586 0.047619 0
0.827586 0.0952381 0
0.827586 0.142857 0
0.827586 0.190476 0
0.827586 0.238095 0
0.827586 0.285714 0
0.827586 0.333333 0
0.827586 0.380952 0
0.827586 0.428571 0
0.827586 0.47619 0
0.827586 0.52381 0
0.827586 0.571429 0
0.827586 0.619048 0
0.827586 0.666667 0
0.827586 0.714286 0
0.827586 0.761905 0
0.827586 0.809524 0
0.827586 0.857143 0
0.827586 0.904762 0
0.827586 0.952381 0
0.827586 1 0
0.873563 0 0
0.873563 0.047619 0
0.873563 0.0952381 0
0.873563 0.142857 0
0.873563 0.190476 0
0.873563 0.238095 0
0.873563 0.285714 0
0.873563 0.333333 0
0.873563 0.380952 0
0.873563 0.428571 0
0.873563 0.47619 0
0.873563 0.52381 0
0.873563 0.571429 0
0.873563 0.619048 0
0.873563 0.666667 0
0.873563 0.714286 0
0.873563 0.761905 0
0.873563 0.809524 0
0.873563 0.857143 0
0.873563 0.904762 0
0.873563 0.952381 0
0.873563 1 0
0.91954 0 0
0.91954 0.047619 0
0.91954 0.0952381 0
0.91954 0.142857 0
0.91954 0.190476 0
0.91954 0.238095 0
0.91954 0.285714 0
0.91954 0.333333 0
0.91954 0.380952 0
0.91954 0.428571 0
0.91954 0.47619 0
0.91954 0.52381 0
0.91954 0.571429 0
0.91954 0.619048 0
0.91954 0.666667 0
0.91954 0.714286 0
0.91954 0.761905 0
0.91954 0.809524 0
0.91954 0.857143 0
0.91954 0.904762 0
0.91954 0.952381 0
0.91954 1 0
0.965517 0 0
0.965517 0.047619 0
0.965517 0.0952381 0
0.965517 0.142857 0
0.965517 0.190476 0
0.965517 0.238095 0
0.965517 0.285714 0
0.965517 0.333333 0
0.965517 0.380952 0
0.965517 0.428571 0
0.965517 0.47619 0
0.965517 0.52381 0
0.965517 0.571429 0
0.965517 0.619048 0
0.965517 0.666667 0
0.965517 0.714286 0
0.965517 0.761905 0
0.965517 0.809524 0
0.965517 0.857143 0
0.965517 0.904762 0
0.965517 0.952381 0
0.965517 1 0
1.01149 0 0
1.01149 0.047619 0
1.01149 0.0952381 0
1.01149 0.142857 0
1.01149 0.190476 0
1.01149 0.238095 0
1.01149 0.285714 0
1.01149 0.333333 0
1.01149 0.380952 0
1.01149 0.428571 0
1.01149 0.47619 0
1.01149 0.52381 0
1.01149 0.571429 0
1.01149 0.619048 0
1.01149 0.666667 0
1.01149 0.714286 0
1.01149 0.761905 0
1.01149 0.809524 0
1.01149 0.857143 0
1.01149 0.904762 0
1.01149 0.952381 0
1.01149 1 0
1.05747 0 0
1.05747 0.047619 0
1.05747 0.0952381 0
1.05747 0.142857 0
1.05747 0.190476 0
1.05747 0.238095 0
1.05747 0.285714 0
1.05747 0.333333 0
1.05747 0.380952 0
1.05747 0.428571 0
1.05747 0.47619 0
1.05747 0.52381 0
1.05747 0.571429 0
1.05747 0.619048 0
1.05747 0.666667 0
1.05747 0.714286 0
1.05747 0.761905 0
1.05747 0.809524 0
1.05747 0.857143 0
1.05747 0.904762 0
1.05747 0.952381 0
1.05747 1 0
1.10345 0 0
1.10345 0.047619 0
1.10345 0.0952381 0
1.10345 0.142857 0
1.10345 0.190476 0
1.10345 0.238095 0
1.10345 0.285714 0
1.10345 0.333333 0
1.10345 0.380952 0
1.10345 0.428571 0
1.10345 0.47619 0
1.10345 0.52381 0
1.10345 0.571429 0
[...]
POINT_DATA 1913
VECTORS velocity[m/s] double
-0 0.209456 0
0 0.209456 0
0 0.209381 0
0 0.180965 0
0 0.150631 0
0 0.12187 0
0 0.0948462 0
0 0.0692217 0
0 0.0445784 0
0 0.0205018 0
0 -0.00340799 0
0 -0.0275515 0
0 -0.052357 0
0 -0.0783158 0
0 -0.10603 0
0 -0.136277 0
0 -0.170101 0
0 -0.208927 0
0 -0.254258 0
0 -0.302736 0
0 -0.309888 0
-0.872547 0.185233 0
0.872547 0.00163375 0
1.07485 0.185233 0
1.10222 0.208819 0
1.10407 0.184421 0
1.10255 0.153016 0
1.10087 0.123221 0
1.09952 0.0956423 0
1.09857 0.0697074 0
1.09803 0.0448535 0
1.09787 0.0206075 0
1.09809 -0.00345468 0
1.09873 -0.0277459 0
1.09984 -0.052703 0
1.10154 -0.0788286 0
1.10398 -0.106748 0
1.10744 -0.137301 0
1.11227 -0.171672 0
1.11855 -0.211251 0
1.12159 -0.255071 0
1.08169 -0.28632 0
0.775577 -0.235245 0
-0.695279 0.144679 0
0.695279 0.00129611 0
1.05208 0.144679 0
1.12577 0.1899 0
1.13439 0.17866 0
1.13132 0.151207 0
1.1275 0.122254 0
1.12456 0.094932 0
1.12257 0.0692089 0
1.12144 0.0445723 0
1.1211 0.0205449 0
1.12155 -0.00329057 0
1.12283 -0.0273289 0
1.12507 -0.0519809 0
1.1285 -0.0777137 0
1.13348 -0.105103 0
1.14062 -0.134889 0
1.15048 -0.16787 0
1.16086 -0.203695 0
1.15176 -0.235358 0
1.03237 -0.234785 0
0.548444 -0.146338 0
-0.556841 0.105546 0
0.556841 0.000944873 0
1.00842 0.105546 0
1.13663 0.16175 0
1.1609 0.164685 0
1.15927 0.14459 0
1.15388 0.118624 0
1.1494 0.0926343 0
1.14636 0.0677356 0
1.14464 0.0437554 0
1.14411 0.0203191 0
1.14475 -0.00293583 0
1.14663 -0.026354 0
1.14991 -0.0502871 0
1.15494 -0.0751232 0
1.16224 -0.101309 0
1.17247 -0.129291 0
1.18507 -0.158998 0
1.19143 -0.18758 0
1.15121 -0.203114 0
0.946975 -0.176834 0
0.407153 -0.0836965 0
-0.455848 0.0738518 0
0.455848 0.000660518 0
0.954152 0.0738518 0
1.13379 0.13224 0
1.1803 0.146257 0
1.18434 0.134295 0
1.17897 0.112649 0
1.17344 0.0889003 0
1.16951 0.0653872 0
1.16726 0.0424597 0
1.16657 0.0199434 0
1.16737 -0.0024247 0
1.16974 -0.0249113 0
1.17389 -0.0477851 0
1.18022 -0.0713244 0
1.18926 -0.0957905 0
1.20115 -0.121218 0
1.21267 -0.146507 0
1.20643 -0.166684 0
1.12583 -0.167932 0
0.857049 -0.128094 0
0.326342 -0.0478493 0
-0.38518 0.0504913 0
0.38518 0.00045122 0
0.897777 0.0504913 0
1.12026 0.105563 0
1.19185 0.126706 0
1.20524 0.121999 0
1.2019 0.105069 0
1.19614 0.0840926 0
1.19165 0.0623652 0
1.189 0.0407907 0
1.18816 0.0194479 0
1.18908 -0.00179727 0
1.19182 -0.0231182 0
1.19662 -0.0446896 0
1.20385 -0.0666677 0
1.21381 -0.0891068 0
1.22557 -0.111604 0
1.23215 -0.132145 0
1.20763 -0.14449 0
1.08737 -0.135523 0
0.779571 -0.0918578 0
0.280143 -0.0286831 0
-0.336866 0.0343595 0
0.336866 0.000306837 0
0.844604 0.0343595 0
1.09985 0.083332 0
1.19639 0.108158 0
1.22159 0.109165 0
1.22216 0.0966926 0
1.21712 0.0786515 0
1.21248 0.0589186 0
1.20961 0.0388799 0
1.20867 0.0188744 0
1.20966 -0.00109335 0
1.21265 -0.0211004 0
1.21784 -0.0412286 0
1.22551 -0.0615154 0
1.23553 -0.081814 0
1.2454 -0.101325 0
1.24407 -0.117364 0
1.19897 -0.123277 0
1.04521 -0.108128 0
0.718575 -0.06632 0
0.252449 -0.0183277 0
-0.303988 0.0237112 0
0.303988 0.000211597 0
0.79732 0.0237112 0
1.07588 0.0656924 0
1.19542 0.0916752 0
1.23363 0.096799 0
1.23958 0.0881924 0
1.23617 0.0729839 0
1.23183 0.0552895 0
1.22893 0.0368589 0
1.22795 0.0182669 0
1.22898 -0.000348556 0
1.23208 -0.0189749 0
1.23743 -0.0376109 0
1.24511 -0.0561878 0
1.25437 -0.0743796 0
1.26089 -0.0910641 0
1.24978 -0.103151 0
1.18435 -0.104212 0
1.00484 -0.0860154 0
0.672238 -0.0486334 0
0.234753 -0.0124287 0
-0.281299 0.0168568 0
0.281299 0.000150325 0
0.756787 0.0168568 0
1.05079 0.0520999 0
1.19048 0.0775977 0
1.24194 0.0854651 0
1.25426 0.0800336 0
1.25326 0.0674055 0
1.24962 0.0516772 0
1.24688 0.0348396 0
1.24593 0.0176641 0
1.24696 0.000407449 0
1.25008 -0.0168399 0
1.25537 -0.0340073 0
1.26267 -0.0509359 0
1.27048 -0.0671485 0
1.27256 -0.0812815 0
1.2508 -0.0900717 0
1.16678 -0.0877113 0
0.968749 -0.0685992 0
0.637282 -0.0363612 0
0.222753 -0.0088404 0
-0.265168 0.0124633 0
0.265168 0.000111071 0
0.722759 0.0124633 0
1.02617 0.0417855 0
1.18288 0.0658603 0
1.24719 0.0754045 0
1.26645 0.0724889 0
1.26844 0.0621277 0
1.26588 0.0482245 0
1.26346 0.032905 0
1.26259 0.0170946 0
1.26362 0.00115121 0
1.26665 -0.0147703 0
1.27171 -0.0305436 0
1.27833 -0.0459359 0
1.28413 -0.0603466 0
1.28105 -0.0722479 0
1.24852 -0.078383 0
1.14833 -0.0737649 0
0.937622 -0.0550458 0
0.61071 -0.0277462 0
0.214218 -0.00652674 0
-0.253242 0.00960362 0
0.253242 8.5535e-05 0
0.694448 0.00960361 0
1.00293 0.0339986 0
1.17366 0.0562075 0
1.25 0.066653 0
1.27646 0.0656833 0
1.28187 0.0572693 0
1.28067 0.0450189 0
1.27873 0.0311078 0
1.27798 0.0165762 0
1.27899 0.00186499 0
1.28188 -0.0128183 0
1.28657 -0.0273033 0
1.29224 -0.0412969 0
1.29562 -0.0541015 0
1.28697 -0.0640915 0
1.24406 -0.0681441 0
1.13025 -0.0621513 0
0.911264 -0.0445466 0
0.590222 -0.0216034 0
0.207916 -0.00496803 0
-0.244052 0.00768513 0
0.244052 6.84143e-05 0
0.670894 0.00768513 0
0.981483 0.028106 0
1.16358 0.0483225 0
1.25094 0.0591334 0
1.28458 0.0596427 0
1.29369 0.0528794 0
1.2941 0.0421024 0
1.29276 0.0294747 0
1.29219 0.0161163 0
1.29317 0.00253597 0
1.29587 -0.0110158 0
1.30008 -0.0243335 0
1.3046 -0.0370747 0
1.30526 -0.0484676 0
1.29088 -0.0568437 0
1.23828 -0.0592972 0
1.11325 -0.0525687 0
0.889112 -0.0364139 0
0.574161 -0.017151 0
0.20312 -0.0038846 0
-0.236698 0.00634835 0
0.236699 5.64921e-05 0
0.651178 0.00634835 0
0.961963 0.0236136 0
1.15314 0.0418939 0
1.25045 0.0527158 0
1.29111 0.0543341 0
1.3041 0.0489602 0
1.30629 0.0394844 0
1.30565 0.0280122 0
1.3053 0.0157145 0
1.30625 0.00315536 0
1.30873 -0.00937909 0
1.31239 -0.0216542 0
1.31561 -0.0332864 0
1.31335 -0.0434494 0
1.29325 -0.0504757 0
1.23178 -0.0517241 0
1.09766 -0.0447038 0
0.870514 -0.0300975 0
0.561352 -0.0138735 0
0.199369 -0.00311417 0
-0.230624 0.00538039 0
0.230624 4.78639e-05 0
0.634508 0.00538039 0
0.944313 0.0201519 0
1.14269 0.0366455 0
1.24888 0.0472547 0
1.2963 0.0496941 0
1.31325 0.045485 0
1.31737 0.0371525 0
1.31753 0.026713 0
1.31743 0.0153654 0
1.31835 0.00371771 0
1.32058 -0.00791273 0
1.32362 -0.0192656 0
1.32542 -0.0299227 0
1.32013 -0.0390201 0
1.29446 -0.0449247 0
1.225 -0.0452813 0
1.08355 -0.0382653 0
0.854849 -0.02517 0
0.550963 -0.0114265 0
0.196362 -0.00255655 0
-0.225475 0.00465492 0
0.225475 4.14e-05 0
0.620246 0.00465491 0
0.928389 0.0174507 0
1.13245 0.0323443 0
1.24653 0.0426078 0
1.30036 0.0456463 0
1.32129 0.0424124 0
1.32745 0.0350821 0
1.32848 0.025562 0
1.32867 0.0150604 0
1.32958 0.00422019 0
1.33154 -0.00661304 0
1.33391 -0.0171552 0
1.3342 -0.0269581 0
1.32583 -0.0351347 0
1.2948 -0.0401112 0
1.21823 -0.0398208 0
1.07091 -0.0329972 0
0.84158 -0.0213049 0
0.542399 -0.00957612 0
0.193894 -0.00214694 0
-0.221021 0.00409511 0
0.221021 3.64141e-05 0
0.607891 0.0040951 0
0.914009 0.0153143 0
1.12254 0.0287998 0
1.24359 0.0386456 0
1.30349 0.0421133 0
1.32837 0.0396954 0
1.33664 0.033243 0
1.33862 0.0245403 0
1.33914 0.0147898 0
1.34004 0.00466209 0
1.34172 -0.00547116 0
1.34337 -0.0153027 0
1.3421 -0.0243584 0
1.33064 -0.0317401 0
1.29452 -0.0359508 0
1.21164 -0.0352017 0
1.05962 -0.0286825 0
0.830256 -0.0182541 0
0.535226 -0.00816032 0
0.191821 -0.00184203 0
-0.217102 0.00365247 0
0.217102 3.24729e-05 0
0.597059 0.00365246 0
0.900988 0.0136009 0
1.11303 0.0258588 0
1.24025 0.0352549 0
1.30582 0.039022 0
1.3346 0.0372867 0
1.34505 0.0316035 0
1.34804 0.0236279 0
1.34892 0.0145441 0
1.34983 0.0050443 0
1.35121 -0.00447516 0
1.35211 -0.013684 0
1.34922 -0.0220857 0
1.33471 -0.0287809 0
1.2938 -0.0323606 0
1.20535 -0.031296 0
1.04955 -0.0251403 0
0.82051 -0.0158298 0
0.529126 -0.00706498 0
0.190043 -0.00161215 0
-0.213607 0.00329501 0
0.213607 2.9291e-05 0
0.587454 0.003295 0
0.889153 0.0122072 0
1.10396 0.0233993 0
1.23661 0.0323392 0
1.3075 0.0363065 0
1.34009 0.0351421 0
1.35275 0.0301338 0
1.35681 0.0228057 0
1.35809 0.0143147 0
1.35902 0.00536896 0
1.3601 -0.00361167 0
1.36023 -0.012274 0
1.35569 -0.0201018 0
1.33816 -0.026203 0
1.29277 -0.0292633 0
1.1994 -0.0279907 0
1.04056 -0.0222225 0
0.812047 -0.013889 0
0.523861 -0.00620829 0
0.188486 -0.00143658 0
-0.210454 0.00300084 0
0.210454 2.66729e-05 0
0.578849 0.00300083 0
0.878347 0.0110578 0
1.09533 0.0213246 0
1.23278 0.0298172 0
1.30862 0.0339092 0
1.34492 0.0332221 0
1.35982 0.0288065 0
1.36501 0.0220565 0
1.36673 0.0140944 0
1.36769 0.0056391 0
1.36847 -0.00286694 0
1.36778 -0.0110478 0
1.36158 -0.0183702 0
1.34112 -0.0239563 0
1.29154 -0.0265887 0
1.19383 -0.0251881 0
1.03252 -0.0198087 0
0.804632 -0.0123232 0
0.519254 -0.00553081 0
0.187099 -0.00130062 0
-0.207583 0.00275451 0
0.207583 2.44811e-05 0
0.57107 0.0027545 0
0.868434 0.0100966 0
1.08713 0.0195584 0
1.22883 0.0276215 0
1.30928 0.0317807 0
1.34919 0.0314923 0
1.36634 0.0275981 0
1.3727 0.0213658 0
1.37489 0.0138774 0
1.3759 0.00585837 0
1.37637 -0.0022275 0
1.37485 -0.00998186 0
1.36697 -0.0168574 0
1.34366 -0.0219953 0
1.29019 -0.0242749 0
1.18864 -0.0228048 0
1.02529 -0.0178014 0
0.798074 -0.0110492 0
0.51517 -0.00498888 0
0.185844 -0.00119373 0
-0.204947 0.00254488 0
0.204947 2.26162e-05 0
0.563981 0.00254487 0
0.859299 0.009282 0
1.07935 0.0180407 0
1.22481 0.0256966 0
1.30956 0.0298793 0
1.35295 0.0299234 0
1.37236 0.0264887 0
1.37993 0.0207212 0
1.38263 0.0136593 0
1.38371 0.00603078 0
1.38385 -0.00168064 0
1.38149 -0.00905492 0
1.37193 -0.015533 0
1.34586 -0.0202795 0
1.28877 -0.022268 0
1.18381 -0.0207706 0
1.01877 -0.0161224 0
0.792222 -0.0100033 0
0.511506 -0.00455009 0
0.184691 -0.00110827 0
-0.202512 0.00236381 0
0.202512 2.10056e-05 0
0.557476 0.0023638 0
0.850842 0.00858283 0
1.07195 0.0167241 0
1.22077 0.023997 0
1.30952 0.02817 0
1.35626 0.0284909 0
1.37792 0.0254615 0
1.38674 0.020113 0
1.39 0.013437 0
1.39115 0.00616058 0
1.39097 -0.00121461 0
1.38775 -0.00824774 0
1.37652 -0.0143705 0
1.34778 -0.0187738 0
1.28732 -0.0205214 0
1.17932 -0.0190266 0
1.01286 -0.0147086 0
0.786957 -0.00913658 0
0.508183 -0.00419025 0
0.183621 -0.00103868 0
-0.20025 0.00220529 0
0.20025 1.95957e-05 0
0.551472 0.00220528 0
0.842982 0.00797546 0
1.06493 0.0155713 0
1.21675 0.0224856 0
1.30921 0.0266237 0
1.35919 0.0271744 0
1.38309 0.0245031 0
1.39319 0.0195335 0
1.39702 0.0132088 0
1.39827 0.00625202 0
1.39776 -0.000818754 0
1.39366 -0.00754335 0
1.38077 -0.0133466 0
1.34947 -0.0174475 0
1.28588 -0.0189952 0
1.17515 -0.0175239 0
1.00748 -0.0135098 0
0.782181 -0.00841103 0
0.50514 -0.00389114 0
0.182618 -0.000980875 0
-0.19814 0.00206484 0
0.19814 1.83468e-05 0
0.545901 0.00206483 0
0.835648 0.00744194 0
1.05826 0.0145528 0
1.21275 0.0211319 0
1.30868 0.0252164 0
1.36177 0.0259572 0
1.38789 0.0236027 0
1.3993 0.0189768 0
1.40374 0.0129736 0
1.4051 0.00630932 0
1.40426 -0.000483501 0
1.39926 -0.00692691 0
1.38473 -0.012441 0
1.35096 -0.0162744 0
1.28446 -0.0176557 0
1.17128 -0.0162219 0
1.00256 -0.0124852 0
0.777818 -0.00779731 0
0.50233 -0.00363905 0
0.181671 -0.000931879 0
-0.196164 0.00193909 0
0.196164 1.72287e-05 0
0.540709 0.00193908 0
0.828782 0.00696855 0
1.0519 0.0136455 0
1.20881 0.0199115 0
1.30796 0.0239284 0
1.36404 0.0248254 0
1.39235 0.0227518 0
1.40509 0.0184386 0
1.41018 0.0127311 0
1.41166 0.00633657 0
1.41048 -0.000200346 0
1.40459 -0.00638558 0
1.38843 -0.0116365 0
1.35229 -0.0152321 0
1.28308 -0.0164742 0
1.16767 -0.0150869 0
0.998034 -0.0116027 0
0.773803 -0.0072726 0
0.499716 -0.00342354 0
0.180772 -0.000889494 0
-0.194308 0.0018255 0
0.194309 1.62188e-05 0
0.535853 0.00182548 0
0.822336 0.00654471 0
1.04585 0.0128309 0
1.20493 0.0188044 0
1.3071 0.0227434 0
1.36604 0.0237682 0
1.39652 0.0219436 0
1.4106 0.0179158 0
1.41635 0.0124818 0
1.41797 0.00633763 0
1.41645 3.82193e-05 0
1.40966 -0.00590825 0
1.3919 -0.0109184 0
1.35349 -0.0143015 0
1.28174 -0.0154268 0
1.1643 -0.0140912 0
0.993853 -0.0108361 0
0.770086 -0.00681909 0
0.49727 -0.0032367 0
0.179913 -0.000852103 0
-0.192562 0.00172212 0
0.192562 1.52998e-05 0
0.531297 0.00172211 0
0.816266 0.00616222 0
1.04009 0.0120945 0
1.20112 0.0177944 0
1.30611 0.021648 0
1.36781 0.0227763 0
1.40041 0.021173 0
1.41585 0.0174064 0
1.42228 0.0122263 0
1.42405 0.00631614 0
1.42219 0.000238787 0
1.41449 -0.0054854 0
1.39517 -0.010274 0
1.35458 -0.0134663 0
1.28045 -0.0144931 0
1.16116 -0.013212 0
0.989975 -0.0101646 0
0.766628 -0.00642285 0
0.494968 -0.00307246 0
0.17909 -0.00081852 0
-0.190914 0.00162746 0
0.190914 1.44583e-05 0
0.52701 0.00162745 0
0.810539 0.00581468 0
1.03458 0.0114245 0
1.1974 0.0168681 0
1.30502 0.0206312 0
1.36935 0.0218424 0
1.40404 0.0204358 0
1.42085 0.0169088 0
1.42799 0.0119657 0
1.42992 0.00627548 0
1.42772 0.000407123 0
1.41912 -0.00510889 0
1.39825 -0.00969267 0
1.35557 -0.0127129 0
1.27921 -0.0136561 0
1.15822 -0.0124305 0
0.986362 -0.00957134 0
0.763393 -0.00607297 0
0.492791 -0.00292622 0
0.1783 -0.00078787 0
-0.189356 0.00154035 0
0.189357 1.3684e-05 0
0.522967 0.00154033 0
0.805122 0.00549704 0
1.02933 0.0108116 0
1.19377 0.0160147 0
1.30385 0.0196839 0
1.37071 0.0209607 0
1.40745 0.0197291 0
1.42562 0.0164225 0
1.43348 0.0117012 0
1.43559 0.00621876 0
1.43304 0.00054825 0
1.42354 -0.00477175 0
1.40117 -0.0091653 0
1.35648 -0.0120297 0
1.27803 -0.0129015 0
1.15546 -0.011731 0
0.982984 -0.00904291 0
0.760355 -0.00576084 0
0.490727 -0.0027944 0
0.17754 -0.00075951 0
-0.187883 0.00145985 0
0.187883 1.29685e-05 0
0.519147 0.00145983 0
0.799991 0.00520529 0
1.0243 0.0102484 0
1.19023 0.0152254 0
1.30262 0.0187986 0
1.3719 0.0201262 0
1.41064 0.0190506 0
1.43018 0.015947 0
1.43878 0.011434 0
1.44106 0.00614883 0
1.43818 0.000666535 0
1.42779 -0.00446804 0
1.40393 -0.0086842 0
1.35732 -0.0114066 0
1.2769 -0.0122173 0
1.15286 -0.0111008 0
0.979815 -0.00856835 0
0.757491 -0.00547969 0
0.488762 -0.00267426 0
0.176806 -0.000732968 0
-0.186486 0.00138522 0
0.186486 1.23053e-05 0
0.51553 0.0013852 0
0.795122 0.00493619 0
1.0195 0.0097285 0
1.18678 0.0144928 0
1.30133 0.0179691 0
1.37294 0.0193348 0
1.41364 0.0183983 0
1.43454 0.0154824 0
1.44388 0.0111656 0
1.44636 0.00606823 0
1.44314 0.000765767 0
1.43186 -0.00419272 0
1.40656 -0.00824282 0
1.35811 -0.0108356 0
1.27582 -0.0115935 0
1.15042 -0.0105293 0
0.976833 -0.00813883 0
0.754782 -0.00522414 0
0.486888 -0.00256369 0
0.176099 -0.000707894 0
-0.18516 0.00131586 0
0.185161 1.16888e-05 0
0.512102 0.00131584 0
0.790495 0.00468712 0
1.0149 0.00924706 0
1.18342 0.0138109 0
1.30002 0.0171901 0
1.37384 0.0185833 0
1.41645 0.0177709 0
1.43871 0.0150286 0
1.4488 0.0108971 0
1.45148 0.00597928 0
1.44793 0.00084922 0
1.43577 -0.00394145 0
1.40906 -0.0078356 0
1.35884 -0.0103094 0
1.27479 -0.0110215 0
1.14811 -0.0100077 0
0.974019 -0.00774717 0
0.752213 -0.00498991 0
0.485096 -0.00246104 0
0.175415 -0.000684031 0
-0.183901 0.00125124 0
0.183901 1.11146e-05 0
0.508847 0.00125122 0
0.786092 0.00445592 0
1.01049 0.00879984 0
1.18016 0.0131744 0
1.29867 0.0164571 0
1.37463 0.0178689 0
1.4191 0.0171673 0
1.4427 0.014586 0
1.45355 0.0106299 0
1.45643 0.00588403 0
1.45255 0.000919725 0
1.43953 -0.00371058 0
1.41145 -0.00745782 0
1.35953 -0.00982197 0
1.27381 -0.0104943 0
1.14593 -0.00952869 0
0.971357 -0.00738754 0
0.749772 -0.00477358 0
0.483381 -0.00236502 0
0.174755 -0.000661188 0
-0.182704 0.00119096 0
0.182704 1.05789e-05 0
0.505753 0.00119093 0
0.781898 0.00424079 0
1.00627 0.00838338 0
1.17699 0.0125791 0
1.29731 0.0157664 0
1.37531 0.0171891 0
1.42159 0.0165867 0
1.44652 0.0141549 0
1.45813 0.010365 0
1.46122 0.0057843 0
1.45702 0.000979718 0
1.44315 -0.00349697 0
1.41373 -0.00710547 0
1.36018 -0.00936834 0
1.27288 -0.0100058 0
1.14386 -0.0090863 0
0.968833 -0.00705516 0
0.747446 -0.0045724 0
0.481736 -0.00227461 0
0.174117 -0.000639221 0
-0.181564 0.00113462 0
0.181565 1.00783e-05 0
0.502808 0.0011346 0
0.777899 0.00404019 0
1.00222 0.00799472 0
1.17391 0.0120213 0
1.29593 0.0151147 0
1.37589 0.0165419 0
1.42394 0.0160282 0
1.45018 0.0137356 0
1.46255 0.0101036 0
1.46586 0.00568169 0
1.46134 0.00103129 0
1.44663 -0.00329796 0
1.41592 -0.00677512 0
1.36079 -0.00894409 0
1.27199 -0.00955082 0
1.1419 -0.00867544 0
0.966436 -0.0067461 0
0.745228 -0.00438416 0
0.480157 -0.00218901 0
0.173499 -0.000618024 0
-0.180479 0.00108193 0
0.180479 9.61003e-06 0
0.500003 0.0010819 0
0.774081 0.00385283 0
0.99833 0.00763134 0
1.17093 0.0114977 0
1.29456 0.014499 0
1.37638 0.0159255 0
1.42616 0.0154913 0
1.45368 0.0133283 0
1.46682 0.00984662 0
1.47035 0.00557759 0
1.46552 0.00107623 0
1.44999 -0.00311128 0
1.41801 -0.00646386 0
1.36138 -0.00854552 0
1.27115 -0.00912515 0
1.14004 -0.00829189 0
0.964156 -0.00645715 0
0.743109 -0.00420705 0
0.47864 -0.00210759 0
0.172903 -0.000597514 0
-0.179444 0.00103258 0
0.179444 9.17153e-06 0
0.497328 0.00103255 0
0.770432 0.00367757 0
0.994597 0.00729105 0
1.16803 0.0110057 0
1.29318 0.013917 0
1.3768 0.0153383 0
1.42824 0.0149754 0
1.45705 0.0129334 0
1.47095 0.00959479 0
1.4747 0.0054732 0
1.46957 0.00111607 0
1.45322 -0.00293501 0
1.42002 -0.0061692 0
1.36194 -0.00816946 0
1.27034 -0.00872508 0
1.13827 -0.0079321 0
0.961983 -0.00618562 0
0.741082 -0.00403961 0
0.477182 -0.00202983 0
0.172326 -0.000577628 0
-0.178456 0.000986322 0
0.178456 8.76053e-06 0
0.494774 0.000986298 0
0.766944 0.00351341 0
0.99101 0.00697194 0
1.16522 0.0105427 0
1.29181 0.0133663 0
1.37715 0.0147786 0
1.43022 0.0144798 0
1.46027 0.012551 0
1.47492 0.00934885 0
1.47891 0.00536953 0
1.47348 0.0011521 0
1.45635 -0.00276752 0
1.42195 -0.00588901 0
1.36247 -0.00781319 0
1.26958 -0.00834751 0
1.13658 -0.00759309 0
0.959912 -0.00592928 0
0.739141 -0.00388062 0
0.47578 -0.0019553 0
0.171768 -0.000558315 0
-0.177512 0.000942928 0
0.177512 8.37496e-06 0
0.492334 0.000942903 0
0.763605 0.00335947 0
0.987563 0.00667232 0
1.16249 0.0101066 0
1.29044 0.0128449 0
1.37744 0.0142453 0
1.43208 0.0140041 0
1.46336 0.0121813 0
1.47877 0.00910937 0
1.48298 0.00526745 0
1.47726 0.0011854 0
1.45936 -0.00260742 0
1.42381 -0.00562147 0
1.36299 -0.00747439 0
1.26885 -0.00798977 0
1.13497 -0.00727234 0
0.957934 -0.00568628 0
0.737282 -0.00372907 0
0.474431 -0.00188366 0
0.171229 -0.000539534 0
-0.17661 0.000902182 0
0.17661 8.01294e-06 0
0.490001 0.000902157 0
0.760406 0.00321495 0
0.984247 0.00639068 0
1.15985 0.00969542 0
1.28909 0.0123509 0
1.37768 0.0137369 0
1.43384 0.0135476 0
1.46633 0.0118242 0
1.48248 0.00887682 0
1.48692 0.00516766 0
1.48093 0.00121688 0
1.46227 -0.00245355 0
1.4256 -0.00536504 0
1.36349 -0.00715107 0
1.26816 -0.00764959 0
1.13344 -0.00696771 0
0.956044 -0.00545506 0
0.735501 -0.00358414 0
0.473133 -0.00181463 0
0.170709 -0.00052125 0
-0.175746 0.000863891 0
0.175747 7.67273e-06 0
0.487768 0.000863865 0
0.75734 0.00307913 0
0.981056 0.00612565 0
1.15728 0.00930737 0
1.28775 0.0118827 0
1.37786 0.0132523 0
1.4355 0.0131098 0
1.46917 0.0114798 0
1.48606 0.00865152 0
1.49073 0.00507073 0
1.48447 0.00124729 0
1.46508 -0.00230493 0
1.42733 -0.0051184 0
1.36397 -0.00684151 0
1.2675 -0.00732501 0
1.13198 -0.00667738 0
0.954238 -0.00523428 0
0.733792 -0.0034451 0
0.471885 -0.00174796 0
0.170205 -0.000503433 0
-0.17492 0.000827872 0
0.17492 7.35271e-06 0
0.485629 0.000827846 0
0.754398 0.00295135 0
0.977984 0.00587598 0
1.1548 0.0089408 0
1.28643 0.0114385 0
1.378 0.0127902 0
1.43708 0.01269 0
1.4719 0.0111479 0
1.48952 0.00843372 0
1.49442 0.0049771 0
1.4879 0.00127722 0
1.4678 -0.00216075 0
1.42899 -0.00488041 0
1.36444 -0.00654423 0
1.26687 -0.00701435 0
1.13059 -0.00639979 0
0.95251 -0.00502282 0
0.732154 -0.00331136 0
0.470683 -0.00168343 0
0.169719 -0.000486056 0
-0.174128 0.000793956 0
0.174128 7.05139e-06 0
0.483579 0.00079393 0
0.751575 0.00283099 0
0.975025 0.00564051 0
1.15239 0.00859421 0
1.28513 0.0110169 0
1.37809 0.0123495 0
1.43857 0.0122876 0
1.47452 0.0108284 0
1.49285 0.00822354 0
1.498 0.00488708 0
1.49122 0.00130716 0
1.47042 -0.00202033 0
1.4306 -0.00465013 0
1.36489 -0.00625797 0
1.26628 -0.00671617 0
1.12926 -0.0061336 0
0.950858 -0.0048197 0
0.730582 -0.0031824 0
0.469527 -0.00162087 0
0.16925 -0.000469091 0
-0.173368 0.000761984 0
0.173369 6.76734e-06 0
0.481612 0.000761957 0
0.748862 0.00271749 0
0.972174 0.00541818 0
1.15005 0.00826617 0
1.28384 0.0106164 0
1.37815 0.0119289 0
1.43997 0.0119019 0
1.47704 0.0105209 0