# vtk DataFile Version 3.0
vtk output
ASCII
DATASET UNSTRUCTURED_GRID
POINTS 1913 double
0.045977 0 0
0.045977 0.0952381 0
0.045977 0.142857 0
0.045977 0.190476 0
0.045977 0.238095 0
0.045977 0.285714 0
0.045977 0.333333 0
0.045977 0.380952 0
0.045977 0.428571 0
0.045977 0.47619 0
0.045977 0.52381 0
0.045977 0.571429 0
0.045977 0.619048 0
0.045977 0.666667 0
0.045977 0.714286 0
0.045977 0.761905 0
0.045977 0.809524 0
0.045977 0.857143 0
0.045977 0.904762 0
0.045977 0.952381 0
0.045977 1 0
0.091954 0 0
0.091954 0.047619 0
0.091954 0.0952381 0
0.091954 0.142857 0
0.091954 0.190476 0
0.091954 0.238095 0
0.091954 0.285714 0
0.091954 0.333333 0
0.091954 0.380952 0
0.091954 0.428571 0
0.091954 0.47619 0
0.091954 0.52381 0
0.091954 0.571429 0
0.091954 0.619048 0
0.091954 0.666667 0
0.091954 0.714286 0
0.091954 0.761905 0
0.091954 0.809524 0
0.091954 0.857143 0
0.091954 0.904762 0
0.091954 0.952381 0
0.091954 1 0
0.137931 0 0
0.137931 0.047619 0
0.137931 0.0952381 0
0.137931 0.142857 0
0.137931 0.190476 0
0.137931 0.238095 0
0.137931 0.285714 0
0.137931 0.333333 0
0.137931 0.380952 0
0.137931 0.428571 0
0.137931 0.47619 0
0.137931 0.52381 0
0.137931 0.571429 0
0.137931 0.619048 0
0.137931 0.666667 0
0.137931 0.714286 0
0.137931 0.761905 0
0.137931 0.809524 0
0.137931 0.857143 0
0.137931 0.904762 0
0.137931 0.952381 0
0.137931 1 0
0.183908 0 0
0.183908 0.047619 0
0.183908 0.0952381 0
0.183908 0.142857 0
0.183908 0.190476 0
0.183908 0.238095 0
0.183908 0.285714 0
0.183908 0.333333 0
0.183908 0.380952 0
0.183908 0.428571 0
0.183908 0.47619 0
0.183908 0.52381 0
0.183908 0.571429 0
0.183908 0.619048 0
0.183908 0.666667 0
0.183908 0.714286 0
0.183908 0.761905 0
0.183908 0.809524 0
0.183908 0.857143 0
0.183908 0.904762 0
0.183908 0.952381 0
0.183908 1 0
0.229885 0 0
0.229885 0.047619 0
0.229885 0.0952381 0
0.229885 0.142857 0
0.229885 0.190476 0
0.229885 0.238095 0
0.229885 0.285714 0
0.229885 0.333333 0
0.229885 0.380952 0
0.229885 0.428571 0
0.229885 0.47619 0
0.229885 0.52381 0
0.229885 0.571429 0
0.229885 0.619048 0
0.229885 0.666667 0
0.229885 0.714286 0
0.229885 0.761905 0
0.229885 0.809524 0
0.229885 0.857143 0
0.229885 0.904762 0
0.229885 0.952381 0
0.229885 1 0
0.275862 0 0
0.275862 0.047619 0
0.275862 0.0952381 0
0.275862 0.142857 0
0.275862 0.190476 0
0.275862 0.238095 0
0.275862 0.285714 0
0.275862 0.333333 0
0.275862 0.380952 0
0.275862 0.428571 0
0.275862 0.47619 0
0.275862 0.52381 0
0.275862 0.571429 0
0.275862 0.619048 0
0.275862 0.666667 0
0.275862 0.714286 0
0.275862 0.761905 0
0.275862 0.809524 0
0.275862 0.857143 0
0.275862 0.904762 0
0.275862 0.952381 0
0.275862 1 0
0.321839 0 0
0.321839 0.047619 0
0.321839 0.0952381 0
0.321839 0.142857 0
0.321839 0.190476 0
0.321839 0.238095 0
0.321839 0.285714 0
0.321839 0.333333 0
0.321839 0.380952 0
0.321839 0.428571 0
0.321839 0.47619 0
0.321839 0.52381 0
0.321839 0.571429 0
0.321839 0.619048 0
0.321839 0.666667 0
0.321839 0.714286 0
0.321839 0.761905 0
0.321839 0.809524 0
0.321839 0.857143 0
0.321839 0.904762 0
0.321839 0.952381 0
0.321839 1 0
0.367816 0 0
0.367816 0.047619 0
0.367816 0.0952381 0
0.367816 0.142857 0
0.367816 0.190476 0
0.367816 0.238095 0
0.367816 0.285714 0
0.367816 0.333333 0
0.367816 0.380952 0
0.367816 0.428571 0
0.367816 0.47619 0
0.367816 0.52381 0
0.367816 0.571429 0
0.367816 0.619048 0
0.367816 0.666667 0
0.367816 0.714286 0
0.367816 0.761905 0
0.367816 0.809524 0
0.367816 0.857143 0
0.367816 0.904762 0
0.367816 0.952381 0
0.367816 1 0
0.413793 0 0
0.413793 0.047619 0
0.413793 0.0952381 0
0.413793 0.142857 0
0.413793 0.190476 0
0.413793 0.238095 0
0.413793 0.285714 0
0.413793 0.333333 0
0.413793 0.380952 0
0.413793 0.428571 0
0.413793 0.47619 0
0.413793 0.52381 0
0.413793 0.571429 0
0.413793 0.619048 0
0.413793 0.666667 0
0.413793 0.714286 0
0.413793 0.761905 0
0.413793 0.809524 0
0.413793 0.857143 0
0.413793 0.904762 0
0.413793 0.952381 0
0.413793 1 0
0.45977 0 0
0.45977 0.047619 0
0.45977 0.0952381 0
0.45977 0.142857 0
0.45977 0.190476 0
0.45977 0.238095 0
0.45977 0.285714 0
0.45977 0.333333 0
0.45977 0.380952 0
0.45977 0.428571 0
0.45977 0.47619 0
0.45977 0.52381 0
0.45977 0.571429 0
0.45977 0.619048 0
0.45977 0.666667 0
0.45977 0.714286 0
0.45977 0.761905 0
0.45977 0.809524 0
0.45977 0.857143 0
0.45977 0.904762 0
0.45977 0.952381 0
0.45977 1 0
0.505747 0 0
0.505747 0.047619 0
0.505747 0.0952381 0
0.505747 0.142857 0
0.505747 0.190476 0
0.505747 0.238095 0
0.505747 0.285714 0
0.505747 0.333333 0
0.505747 0.380952 0
0.505747 0.428571 0
0.505747 0.47619 0
0.505747 0.52381 0
0.505747 0.571429 0
0.505747 0.619048 0
0.505747 0.666667 0
0.505747 0.714286 0
0.505747 0.761905 0
0.505747 0.809524 0
0.505747 0.857143 0
0.505747 0.904762 0
0.505747 0.952381 0
0.505747 1 0
0.551724 0 0
0.551724 0.047619 0
0.551724 0.0952381 0
0.551724 0.142857 0
0.551724 0.190476 0
0.551724 0.238095 0
0.551724 0.285714 0
0.551724 0.333333 0
0.551724 0.380952 0
0.551724 0.428571 0
0.551724 0.47619 0
0.551724 0.52381 0
0.551724 0.571429 0
0.551724 0.619048 0
0.551724 0.666667 0
0.551724 0.714286 0
0.551724 0.761905 0
0.551724 0.809524 0
0.551724 0.857143 0
0.551724 0.904762 0
0.551724 0.952381 0
0.551724 1 0
0.597701 0 0
0.597701 0.047619 0
0.597701 0.0952381 0
0.597701 0.142857 0
0.597701 0.190476 0
0.597701 0.238095 0
0.597701 0.285714 0
0.597701 0.333333 0
0.597701 0.380952 0
0.597701 0.428571 0
0.597701 0.47619 0
0.597701 0.52381 0
0.597701 0.571429 0
0.597701 0.619048 0
0.597701 0.666667 0
0.597701 0.714286 0
0.597701 0.761905 0
0.597701 0.809524 0
0.597701 0.857143 0
0.597701 0.904762 0
0.597701 0.952381 0
0.597701 1 0
0.643678 0 0
0.643678 0.047619 0
0.643678 0.0952381 0
0.643678 0.142857 0
0.643678 0.190476 0
0.643678 0.238095 0
0.643678 0.285714 0
0.643678 0.333333 0
0.643678 0.380952 0
0.643678 0.428571 0
0.643678 0.47619 0
0.643678 0.52381 0
0.643678 0.571429 0
0.643678 0.619048 0
0.643678 0.666667 0
0.643678 0.714286 0
0.643678 0.761905 0
0.643678 0.809524 0
0.643678 0.857143 0
0.643678 0.904762 0
0.643678 0.952381 0
0.643678 1 0
0.689655 0 0
0.689655 0.047619 0
0.689655 0.0952381 0
0.689655 0.142857 0
0.689655 0.190476 0
0.689655 0.238095 0
0.689655 0.285714 0
0.689655 0.333333 0
0.689655 0.380952 0
0.689655 0.428571 0
0.689655 0.47619 0
0.689655 0.52381 0
0.689655 0.571429 0
0.689655 0.619048 0
0.689655 0.666667 0
0.689655 0.714286 0
0.689655 0.761905 0
0.689655 0.809524 0
0.689655 0.857143 0
0.689655 0.904762 0
0.689655 0.952381 0
0.689655 1 0
0.735632 0 0
0.735632 0.047619 0
0.735632 0.0952381 0
0.735632 0.142857 0
0.735632 0.190476 0
0.735632 0.238095 0
0.735632 0.285714 0
0.735632 0.333333 0
0.735632 0.380952 0
0.735632 0.428571 0
0.735632 0.47619 0
0.735632 0.52381 0
0.735632 0.571429 0
0.735632 0.619048 0
0.735632 0.666667 0
0.735632 0.714286 0
0.735632 0.761905 0
0.735632 0.809524 0
0.735632 0.857143 0
0.735632 0.904762 0
0.735632 0.952381 0
0.735632 1 0
0.781609 0 0
0.781609 0.047619 0
0.781609 0.0952381 0
0.781609 0.142857 0
0.781609 0.190476 0
0.781609 0.238095 0
0.781609 0.285714 0
0.781609 0.333333 0
0.781609 0.380952 0
0.781609 0.428571 0
0.781609 0.47619 0
0.781609 0.52381 0
0.781609 0.571429 0
0.781609 0.619048 0
0.781609 0.666667 0
0.781609 0.714286 0
0.781609 0.761905 0
0.781609 0.809524 0
0.781609 0.857143 0
0.781609 0.904762 0
0.781609 0.952381 0
0.781609 1 0
0.827586 0 0
0.827586 0.047619 0
0.827586 0.0952381 0
0.827586 0.142857 0
0.827586 0.190476 0
0.827586 0.238095 0
0.827586 0.285714 0
0.827586 0.333333 0
0.827586 0.380952 0
0.827586 0.428571 0
0.827586 0.47619 0
0.827586 0.52381 0
0.827586 0.571429 0
0.827586 0.619048 0
0.827586 0.666667 0
0.827586 0.714286 0
0.827586 0.761905 0
0.827586 0.809524 0
0.827586 0.857143 0
0.827586 0.904762 0
0.827586 0.952381 0
0.827586 1 0
0.873563 0 0
0.873563 0.047619 0
0.873563 0.0952381 0
0.873563 0.142857 0
0.873563 0.190476 0
0.873563 0.238095 0
0.873563 0.285714 0
0.873563 0.333333 0
0.873563 0.380952 0
0.873563 0.428571 0
0.873563 0.47619 0
0.873563 0.52381 0
0.873563 0.571429 0
0.873563 0.619048 0
0.873563 0.666667 0
0.873563 0.714286 0
0.873563 0.761905 0
0.873563 0.809524 0
0.873563 0.857143 0
0.873563 0.904762 0
0.873563 0.952381 0
0.873563 1 0
0.91954 0 0
0.91954 0.047619 0
0.91954 0.0952381 0
0.91954 0.142857 0
0.91954 0.190476 0
0.91954 0.238095 0
0.91954 0.285714 0
0.91954 0.333333 0
0.91954 0.380952 0
0.91954 0.428571 0
0.91954 0.47619 0
0.91954 0.52381 0
0.91954 0.571429 0
0.91954 0.619048 0
0.91954 0.666667 0
0.91954 0.714286 0
0.91954 0.761905 0
0.91954 0.809524 0
0.91954 0.857143 0
0.91954 0.904762 0
0.91954 0.952381 0
0.91954 1 0
0.965517 0 0
0.965517 0.047619 0
0.965517 0.0952381 0
0.965517 0.142857 0
0.965517 0.190476 0
0.965517 0.238095 0
0.965517 0.285714 0
0.965517 0.333333 0
0.965517 0.380952 0
0.965517 0.428571 0
0.965517 0.47619 0
0.965517 0.52381 0
0.965517 0.571429 0
0.965517 0.619048 0
0.965517 0.666667 0
0.965517 0.714286 0
0.965517 0.761905 0
0.965517 0.809524 0
0.965517 0.857143 0
0.965517 0.904762 0
0.965517 0.952381 0
0.965517 1 0
1.01149 0 0
1.01149 0.047619 0
1.01149 0.0952381 0
1.01149 0.142857 0
1.01149 0.190476 0
1.01149 0.238095 0
1.01149 0.285714 0
1.01149 0.333333 0
1.01149 0.380952 0
1.01149 0.428571 0
1.01149 0.47619 0
1.01149 0.52381 0
1.01149 0.571429 0
1.01149 0.619048 0
1.01149 0.666667 0
1.01149 0.714286 0
1.01149 0.761905 0
1.01149 0.809524 0
1.01149 0.857143 0
1.01149 0.904762 0
1.01149 0.952381 0
1.01149 1 0
1.05747 0 0
1.05747 0.047619 0
1.05747 0.0952381 0
1.05747 0.142857 0
1.05747 0.190476 0
1.05747 0.238095 0
1.05747 0.285714 0
1.05747 0.333333 0
1.05747 0.380952 0
1.05747 0.428571 0
1.05747 0.47619 0
1.05747 0.52381 0
1.05747 0.571429 0
1.05747 0.619048 0
1.05747 0.666667 0
1.05747 0.714286 0
1.05747 0.761905 0
1.05747 0.809524 0
1.05747 0.857143 0
1.05747 0.904762 0
1.05747 0.952381 0
1.05747 1 0
1.10345 0 0
1.10345 0.047619 0
1.10345 0.0952381 0
1.10345 0.142857 0
1.10345 0.190476 0
1.10345 0.238095 0
1.10345 0.285714 0
1.10345 0.333333 0
1.10345 0.380952 0
1.10345 0.428571 0
1.10345 0.47619 0
1.10345 0.52381 0
1.10345 0.571429 0
[...]
POINT_DATA 1913
VECTORS velocity[m/s] double
-0 0.209485 0
0 0.209485 0
0 0.209451 0
0 0.181069 0
0 0.150764 0
0 0.122028 0
0 0.0950277 0
0 0.0694235 0
0 0.0447977 0
0 0.0207359 0
0 -0.00316189 0
0 -0.0272965 0
0 -0.0520961 0
0 -0.0780522 0
0 -0.105767 0
0 -0.136018 0
0 -0.169852 0
0 -0.208691 0
0 -0.254042 0
0 -0.302552 0
0 -0.309763 0
-0.872324 0.185247 0
0.872324 0.00163388 0
1.07462 0.185247 0
1.10199 0.208882 0
1.10385 0.184524 0
1.10233 0.153152 0
1.10065 0.123384 0
1.09931 0.0958294 0
1.09836 0.0699156 0
1.09782 0.04508 0
1.09766 0.0208494 0
1.09788 -0.00320029 0
1.09853 -0.027482 0
1.09964 -0.0524329 0
1.10134 -0.0785554 0
1.10379 -0.106475 0
1.10725 -0.137033 0
1.11208 -0.171412 0
1.11837 -0.211005 0
1.12141 -0.254846 0
1.08154 -0.286138 0
0.775496 -0.235146 0
-0.695043 0.144684 0
0.695044 0.00129615 0
1.0518 0.144684 0
1.12551 0.189955 0
1.13414 0.178763 0
1.13107 0.151348 0
1.12726 0.122425 0
1.12433 0.0951276 0
1.12234 0.0694265 0
1.12121 0.044809 0
1.12088 0.0207977 0
1.12133 -0.0030246 0
1.12262 -0.0270528 0
1.12487 -0.0516979 0
1.1283 -0.0774272 0
1.13329 -0.104816 0
1.14044 -0.134606 0
1.15031 -0.167595 0
1.1607 -0.203434 0
1.15163 -0.235127 0
1.03231 -0.234618 0
0.548459 -0.146271 0
-0.556601 0.105546 0
0.556601 0.000944877 0
1.00809 0.105546 0
1.13631 0.161799 0
1.16061 0.164789 0
1.159 0.144736 0
1.15362 0.118804 0
1.14914 0.0928412 0
1.14611 0.0679657 0
1.1444 0.0440055 0
1.14388 0.0205862 0
1.14453 -0.00265476 0
1.14641 -0.0260621 0
1.14971 -0.0499876 0
1.15474 -0.0748194 0
1.16206 -0.101004 0
1.17229 -0.128989 0
1.18491 -0.158704 0
1.1913 -0.187305 0
1.15114 -0.202883 0
0.947009 -0.176686 0
0.407232 -0.0836527 0
-0.455607 0.0738513 0
0.455608 0.000660511 0
0.953777 0.0738513 0
1.13343 0.132287 0
1.17997 0.146363 0
1.18404 0.13445 0
1.17868 0.112841 0
1.17316 0.0891215 0
1.16924 0.065633 0
1.16701 0.0427266 0
1.16632 0.0202283 0
1.16713 -0.00212491 0
1.16951 -0.0245997 0
1.17368 -0.047465 0
1.18003 -0.0709991 0
1.18908 -0.0954635 0
1.20098 -0.120894 0
1.21253 -0.146193 0
1.20634 -0.166396 0
1.12584 -0.167702 0
0.857184 -0.127962 0
0.326465 -0.0478169 0
-0.384942 0.0504921 0
0.384942 0.000451226 0
0.897357 0.0504921 0
1.11984 0.10561 0
1.19147 0.126814 0
1.2049 0.122162 0
1.20159 0.105274 0
1.19584 0.0843308 0
1.19136 0.0626298 0
1.18873 0.0410777 0
1.1879 0.0197541 0
1.18883 -0.00147507 0
1.19159 -0.0227832 0
1.19641 -0.044345 0
1.20365 -0.0663169 0
1.21363 -0.0887535 0
1.22541 -0.111254 0
1.23203 -0.131808 0
1.2076 -0.144189 0
1.08748 -0.135295 0
0.779803 -0.0917374 0
0.280297 -0.028655 0
-0.336627 0.0343634 0
0.336628 0.00030687 0
0.844141 0.0343634 0
1.09937 0.0833807 0
1.19596 0.108272 0
1.22121 0.10934 0
1.22181 0.0969144 0
1.21679 0.0789094 0
1.21217 0.0592052 0
1.20932 0.0391906 0
1.2084 0.0192056 0
1.20941 -0.000744959 0
1.21241 -0.020738 0
1.21762 -0.0408554 0
1.22531 -0.061135 0
1.23536 -0.0814306 0
1.24526 -0.100946 0
1.24399 -0.117004 0
1.19901 -0.122962 0
1.04542 -0.1079 0
0.718897 -0.0662058 0
0.252631 -0.018301 0
-0.303746 0.0237188 0
0.303746 0.000211664 0
0.796814 0.0237188 0
1.07533 0.065745 0
1.19493 0.0917959 0
1.23321 0.096986 0
1.23919 0.0884324 0
1.23582 0.0732641 0
1.2315 0.0556012 0
1.22862 0.0371966 0
1.22766 0.0186267 0
1.22871 2.98996e-05 0
1.23184 -0.018581 0
1.2372 -0.037205 0
1.24491 -0.0557736 0
1.2542 -0.0739623 0
1.26076 -0.0906527 0
1.24974 -0.102764 0
1.18447 -0.103882 0
1.00517 -0.085785 0
0.672645 -0.0485211 0
0.234962 -0.0124019 0
-0.28105 0.0168682 0
0.281051 0.000150425 0
0.756238 0.0168681 0
1.05018 0.0521576 0
1.18992 0.0777268 0
1.24146 0.0856662 0
1.25384 0.0802939 0
1.25287 0.0677108 0
1.24927 0.0520173 0
1.24655 0.0352078 0
1.24562 0.0180562 0
1.24668 0.000819928 0
1.24982 -0.0164104 0
1.25513 -0.0335644 0
1.26247 -0.0504838 0
1.27031 -0.0666933 0
1.27246 -0.0808349 0
1.25082 -0.0896565 0
1.167 -0.0873652 0
0.969187 -0.0683632 0
0.637772 -0.0362473 0
0.222988 -0.0088127 0
-0.26491 0.0124781 0
0.264911 0.000111201 0
0.722166 0.012478 0
1.0255 0.0418491 0
1.18226 0.0659992 0
1.24665 0.0756213 0
1.26599 0.0727714 0
1.26803 0.0624605 0
1.2655 0.048596 0
1.26311 0.0333073 0
1.26226 0.017523 0
1.26332 0.00160177 0
1.26638 -0.0143011 0
1.27147 -0.0300594 0
1.27812 -0.0454413 0
1.28397 -0.0598494 0
1.28098 -0.0717627 0
1.24861 -0.0779371 0
1.14865 -0.0733997 0
0.938179 -0.054801 0
0.611284 -0.0276283 0
0.21448 -0.0064977 0
-0.252971 0.00962134 0
0.252971 8.56919e-05 0
0.693809 0.0096213 0
1.00218 0.0340685 0
1.17297 0.0563573 0
1.24941 0.0668872 0
1.27594 0.06599 0
1.28141 0.0576322 0
1.28026 0.0454248 0
1.27835 0.0315479 0
1.27764 0.0170447 0
1.27867 0.00235781 0
1.2816 -0.0123048 0
1.28632 -0.0267731 0
1.29203 -0.0407554 0
1.29547 -0.0535581 0
1.28694 -0.0635641 0
1.24423 -0.0676646 0
1.1307 -0.0617641 0
0.911944 -0.04429 0
0.590883 -0.0214796 0
0.208207 -0.00493729 0
-0.243765 0.00770544 0
0.243766 6.85943e-05 0
0.670205 0.0077054 0
0.980659 0.0281827 0
1.1628 0.048484 0
1.25027 0.0593862 0
1.28401 0.0599755 0
1.2932 0.053275 0
1.29366 0.0425459 0
1.29235 0.029956 0
1.29182 0.0166288 0
1.29283 0.0030753 0
1.29557 -0.0104536 0
1.29982 -0.0237528 0
1.30439 -0.0364817 0
1.30513 -0.0478737 0
1.2909 -0.0562704 0
1.23853 -0.0587808 0
1.11383 -0.0521565 0
0.889921 -0.0361427 0
0.574911 -0.0170198 0
0.203441 -0.00385184 0
-0.236393 0.006371 0
0.236393 5.66929e-05 0
0.650435 0.00637096 0
0.961058 0.0236973 0
1.15228 0.0420681 0
1.2497 0.0529886 0
1.29048 0.0546949 0
1.30356 0.0493908 0
1.30582 0.0399685 0
1.30522 0.0285382 0
1.3049 0.0162752 0
1.30589 0.00374557 0
1.30841 -0.00876351 0
1.31211 -0.0210181 0
1.31539 -0.0326371 0
1.31324 -0.0428006 0
1.29332 -0.0498525 0
1.23214 -0.0511674 0
1.09836 -0.0442634 0
0.871458 -0.029809 0
0.562198 -0.0137336 0
0.199723 -0.00307915 0
-0.230297 0.00540521 0
0.230298 4.8084e-05 0
0.633706 0.00540517 0
0.943322 0.0202428 0
1.14174 0.0368331 0
1.24806 0.0475486 0
1.29561 0.0500844 0
1.31266 0.045953 0
1.31685 0.0376803 0
1.31706 0.0272874 0
1.317 0.0159782 0
1.31797 0.00436325 0
1.32024 -0.00723902 0
1.32333 -0.0185691 0
1.32521 -0.029212 0
1.32005 -0.0383114 0
1.29459 -0.0442474 0
1.22547 -0.0446806 0
1.08441 -0.0377933 0
0.855938 -0.0248617 0
0.551912 -0.0112768 0
0.19675 -0.00251903 0
-0.225126 0.00468181 0
0.225126 4.16386e-05 0
0.619381 0.00468176 0
0.927304 0.0175488 0
1.13139 0.0325459 0
1.24561 0.0429239 0
1.2996 0.0460678 0
1.32065 0.04292 0
1.32689 0.0356564 0
1.32798 0.0261884 0
1.32822 0.0157293 0
1.32917 0.00492556 0
1.33118 -0.00587631 0
1.33361 -0.0163932 0
1.33399 -0.0261809 0
1.32578 -0.0343615 0
1.29501 -0.0393755 0
1.21882 -0.0391722 0
1.07192 -0.0324904 0
0.842822 -0.0209745 0
0.543457 -0.00941556 0
0.194319 -0.00210673 0
-0.220647 0.00412402 0
0.220647 3.66706e-05 0
0.606958 0.00412397 0
0.912825 0.0154197 0
1.12137 0.0290158 0
1.24257 0.0389848 0
1.30264 0.0425674 0
1.32766 0.0402446 0
1.33603 0.0338665 0
1.33808 0.025222 0
1.33865 0.015519 0
1.3396 0.00543182 0
1.34134 -0.00466645 0
1.34306 -0.0144699 0
1.34189 -0.0235094 0
1.33062 -0.0308972 0
1.29482 -0.035152 0
1.21237 -0.0345012 0
1.06081 -0.0281374 0
0.831662 -0.0178994 0
0.5364 -0.00798795 0
0.192285 -0.00179894 0
-0.216701 0.00368334 0
0.216702 3.27469e-05 0
0.596053 0.00368329 0
0.899698 0.0137136 0
1.11175 0.0260896 0
1.23912 0.035618 0
1.30488 0.0395099 0
1.33382 0.0378793 0
1.34438 0.0322789 0
1.34745 0.0243682 0
1.34839 0.0153374 0
1.34935 0.00588293 0
1.3508 -0.00359748 0
1.35179 -0.0127752 0
1.34903 -0.0211595 0
1.33473 -0.027863 0
1.29419 -0.0314939 0
1.20623 -0.0305392 0
1.05092 -0.0245535 0
0.822093 -0.0154484 0
0.530425 -0.00687983 0
0.190549 -0.00156601 0
-0.213177 0.00332781 0
0.213178 2.9582e-05 0
0.586369 0.00332775 0
0.88775 0.0123272 0
1.10255 0.0236449 0
1.23536 0.0327265 0
1.30645 0.0368292 0
1.33923 0.0357798 0
1.35201 0.0308632 0
1.35617 0.0236077 0
1.35752 0.015176 0
1.35851 0.00628095 0
1.35966 -0.002656 0
1.35988 -0.0112837 0
1.3555 -0.0190928 0
1.33824 -0.0252048 0
1.29327 -0.0283235 0
1.20045 -0.0271732 0
1.04213 -0.0215904 0
0.813821 -0.0134787 0
0.525296 -0.00600942 0
0.189038 -0.00138721 0
-0.209994 0.0030355 0
0.209995 2.69805e-05 0
0.577681 0.00303545 0
0.876823 0.0111848 0
1.09378 0.0215851 0
1.2314 0.030229 0
1.30747 0.0344672 0
1.34398 0.033906 0
1.35902 0.0295921 0
1.36431 0.022923 0
1.36611 0.0150273 0
1.36714 0.00662881 0
1.36799 -0.00182829 0
1.36742 -0.0099705 0
1.3614 -0.0172728 0
1.34125 -0.0228721 0
1.29216 -0.0255707 0
1.19506 -0.0243052 0
1.0343 -0.0191276 0
0.80661 -0.0118817 0
0.520833 -0.00531724 0
0.187699 -0.00124783 0
-0.20709 0.00279095 0
0.207091 2.48045e-05 0
0.569813 0.00279089 0
0.866782 0.0102305 0
1.08543 0.0198335 0
1.22731 0.0280577 0
1.30801 0.0323742 0
1.34814 0.0322232 0
1.36546 0.0284413 0
1.37194 0.0222992 0
1.37422 0.0148852 0
1.3753 0.00692994 0
1.37586 -0.001101 0
1.37448 -0.00881226 0
1.36681 -0.0156658 0
1.34386 -0.0208195 0
1.29094 -0.0231734 0
1.19006 -0.0218519 0
1.0273 -0.0170677 0
0.800272 -0.0105742 0
0.516905 -0.00475958 0
0.186495 -0.00113734 0
-0.204421 0.002583 0
0.204421 2.29545e-05 0
0.562631 0.00258294 0
0.857511 0.00942241 0
1.07749 0.0183298 0
1.22314 0.0261566 0
1.30816 0.030508 0
1.35179 0.0307016 0
1.37139 0.0273905 0
1.37909 0.0217236 0
1.3819 0.0147449 0
1.38306 0.00718809 0
1.3833 -0.000461596 0
1.38109 -0.00778763 0
1.37179 -0.0142416 0
1.34613 -0.0190063 0
1.28966 -0.0210774 0
1.18545 -0.0197426 0
1.02104 -0.0153322 0
0.794659 -0.00949244 0
0.513408 -0.00430398 0
0.185398 -0.00104806 0
-0.20195 0.00240347 0
0.201951 2.13576e-05 0
0.556028 0.00240342 0
0.848911 0.00872923 0
1.06994 0.0170264 0
1.21894 0.0244798 0
1.30797 0.028833 0
1.35499 0.0293159 0
1.37686 0.0264224 0
1.38583 0.0211857 0
1.3892 0.014603 0
1.39045 0.0074071 0
1.39038 0.000101396 0
1.38733 -0.00687757 0
1.37639 -0.0129735 0
1.34813 -0.0173972 0
1.28837 -0.0192358 0
1.18119 -0.0179185 0
1.0154 -0.0138578 0
0.78965 -0.00858713 0
0.510265 -0.00392614 0
0.184386 -0.000974404 0
-0.199651 0.00224633 0
0.199652 1.99599e-05 0
0.549921 0.00224627 0
0.840901 0.00812718 0
1.06274 0.0158855 0
1.21474 0.0229895 0
1.30751 0.0273195 0
1.35779 0.028045 0
1.38192 0.0255227 0
1.39219 0.020677 0
1.39614 0.0144568 0
1.3975 0.00759072 0
1.39712 0.000598265 0
1.39321 -0.00606536 0
1.38066 -0.0118384 0
1.34991 -0.0159617 0
1.2871 -0.0176089 0
1.17727 -0.0163302 0
1.01031 -0.012594 0
0.785151 -0.00782025 0
0.507416 -0.00360774 0
0.183446 -0.000912262 0
-0.197502 0.00210704 0
0.197503 1.87213e-05 0
0.544243 0.00210699 0
0.833411 0.00759815 0
1.05588 0.0148774 0
1.21056 0.021655 0
1.30681 0.0259427 0
1.36022 0.0268713 0
1.3866 0.0246796 0
1.3982 0.020191 0
1.40277 0.0143047 0
1.40425 0.00774251 0
1.40355 0.00103807 0
1.39879 -0.00533649 0
1.38464 -0.0108162 0
1.3515 -0.0146734 0
1.28587 -0.0161627 0
1.17366 -0.0149371 0
1.0057 -0.0115001 0
0.781084 -0.0071622 0
0.504814 -0.00333488 0
0.182566 -0.000858591 0
-0.195487 0.0019822 0
0.195488 1.76114e-05 0
0.538942 0.00198216 0
0.826383 0.00712819 0
1.04934 0.0139784 0
1.20642 0.0204508 0
1.30591 0.0246818 0
1.36234 0.0257801 0
1.39093 0.0238836 0
1.40388 0.0197221 0
1.40911 0.0141454 0
1.41073 0.00786574 0
1.40971 0.00142868 0
1.40408 -0.00467858 0
1.38837 -0.00989007 0
1.35294 -0.0135102 0
1.28469 -0.0148685 0
1.17034 -0.0137053 0
1.00151 -0.0105435 0
0.777389 -0.00658992 0
0.502424 -0.00309698 0
0.181738 -0.000811127 0
-0.193591 0.00186923 0
0.193592 1.6607e-05 0
0.533974 0.00186919 0
0.81977 0.00670651 0
1.04309 0.0131696 0
1.20233 0.0193562 0
1.30485 0.0235196 0
1.36417 0.0247589 0
1.39495 0.0231266 0
1.40926 0.0192661 0
1.41517 0.0139781 0
1.41694 0.00796327 0
1.4156 0.00177677 0
1.40911 -0.00408116 0
1.39186 -0.00904551 0
1.35425 -0.0124531 0
1.28356 -0.0137023 0
1.16729 -0.0126071 0
0.997697 -0.00969781 0
0.774018 -0.00608535 0
0.500218 -0.00288593 0
0.180955 -0.00076818 0
-0.191804 0.00176612 0
0.191805 1.56903e-05 0
0.529305 0.00176608 0
0.813531 0.00632466 0
1.03712 0.0124357 0
1.19831 0.018354 0
1.30365 0.0224415 0
1.36575 0.0237974 0
1.39868 0.0224019 0
1.41437 0.0188193 0
1.42098 0.0138022 0
1.42292 0.00803754 0
1.42126 0.00208793 0
1.4139 -0.00353549 0
1.39515 -0.00827053 0
1.35546 -0.0114861 0
1.28251 -0.0126439 0
1.16448 -0.0116194 0
0.99421 -0.00894211 0
0.770929 -0.00563433 0
0.498174 -0.00269548 0
0.180215 -0.000728479 0
-0.190115 0.00167132 0
0.190116 1.48476e-05 0
0.524904 0.00167129 0
0.807631 0.00597596 0
1.03141 0.0117646 0
1.19437 0.01743 0
1.30235 0.021435 0
1.36709 0.0228865 0
1.40214 0.0217037 0
1.41922 0.0183787 0
1.42655 0.013617 0
1.42866 0.00809048 0
1.42669 0.0023667 0
1.41848 -0.00303442 0
1.39826 -0.00755517 0
1.35657 -0.0105962 0
1.28152 -0.0116766 0
1.1619 -0.0107235 0
0.991017 -0.00825948 0
0.768092 -0.00522578 0
0.496275 -0.00252084 0
0.179512 -0.000691072 0
-0.188516 0.00158359 0
0.188518 1.40679e-05 0
0.520748 0.00158357 0
0.802043 0.00565505 0
1.02594 0.0111462 0
1.1905 0.0165722 0
1.30095 0.0204897 0
1.36824 0.0220186 0
1.40535 0.0210272 0
1.42381 0.0179416 0
1.43189 0.0134219 0
1.43419 0.00812351 0
1.43191 0.00261663 0
1.42284 -0.00257219 0
1.40119 -0.0068913 0
1.35762 -0.00977222 0
1.2806 -0.0107865 0
1.15952 -0.00990399 0
0.988088 -0.00763642 0
0.765482 -0.004851 0
0.494509 -0.00235835 0
0.178845 -0.000655246 0
-0.187002 0.00150195 0
0.187003 1.33423e-05 0
0.516818 0.00150194 0
0.796742 0.00535759 0
1.0207 0.0105721 0
1.18672 0.0157704 0
1.29947 0.0195962 0
1.3692 0.0211867 0
1.40833 0.0203676 0
1.42818 0.0175053 0
1.437 0.0132162 0
1.43951 0.00813751 0
1.43692 0.00284037 0
1.42701 -0.00214432 0
1.40398 -0.00627236 0
1.3586 -0.0090053 0
1.27975 -0.0099622 0
1.15733 -0.00914851 0
0.9854 -0.0070622 0
0.763076 -0.00450328 0
0.492866 -0.00220524 0
0.178214 -0.00062048 0
-0.185566 0.00142559 0
0.185567 1.26638e-05 0
0.513096 0.0014256 0
0.791708 0.00508 0
1.01568 0.0100355 0
1.18303 0.015016 0
1.29794 0.0187464 0
1.36999 0.0203844 0
1.4111 0.0197208 0
1.43232 0.0170674 0
1.44191 0.0129986 0
1.44462 0.00813281 0
1.44173 0.00303971 0
1.431 -0.00174746 0
1.40662 -0.00569326 0
1.35952 -0.00828822 0
1.27896 -0.00919446 0
1.15532 -0.00844706 0
0.98293 -0.00652842 0
0.760858 -0.00417747 0
0.491337 -0.00205947 0
0.177615 -0.000586409 0
-0.184203 0.00135384 0
0.184204 1.20261e-05 0
0.509568 0.00135386 0
0.786924 0.00481927 0
1.01087 0.00953021 0
1.17943 0.0143012 0
1.29635 0.017933 0
1.37063 0.0196061 0
1.41366 0.0190826 0
1.43625 0.0166251 0
1.44661 0.0127677 0
1.44954 0.00810921 0
1.44635 0.00321568 0
1.43481 -0.00137929 0
1.40912 -0.00515013 0
1.3604 -0.00761532 0
1.27824 -0.00847599 0
1.15347 -0.0077918 0
0.980661 -0.00602859 0
0.758813 -0.00386975 0
0.489915 -0.0019196 0
0.17705 -0.000552799 0
-0.182908 0.00128611 0
0.182909 1.14243e-05 0
0.506223 0.00128615 0
0.782376 0.00457281 0
1.00627 0.00905121 0
1.17592 0.0136192 0
1.29474 0.0171492 0
1.37113 0.0188462 0
1.41603 0.0184489 0
1.43998 0.0161757 0
1.4511 0.012522 0
1.45427 0.00806597 0
1.45079 0.00336856 0
1.43845 -0.0010384 0
1.4115 -0.00464022 0
1.36123 -0.00698231 0
1.27758 -0.0078011 0
1.15176 -0.00717669 0
0.978577 -0.00555789 0
0.756931 -0.00357742 0
0.488596 -0.0017847 0
0.176517 -0.000519533 0
-0.181678 0.00122188 0
0.18168 1.08536e-05 0
0.503051 0.00122194 0
0.778053 0.00433829 0
1.00186 0.00859382 0
1.17251 0.012964 0
1.2931 0.0163887 0
1.37152 0.0180992 0
1.41823 0.0178157 0
1.4435 0.0157162 0
1.45541 0.0122592 0
1.4588 0.00800187 0
1.45505 0.00349799 0
1.44193 -0.000724172 0
1.41377 -0.00416178 0
1.36202 -0.00638609 0
1.27698 -0.00716558 0
1.1502 -0.00659727 0
0.976666 -0.00511288 0
0.755201 -0.00329871 0
0.487376 -0.00165429 0
0.176016 -0.000486593 0
-0.18051 0.00116063 0
0.180511 1.03094e-05 0
0.500042 0.00116072 0
0.773945 0.00411358 0
0.997638 0.00815376 0
1.16921 0.0123296 0
1.29145 0.0156456 0
1.37179 0.01736 0
1.42026 0.0171787 0
1.44684 0.0152433 0
1.45952 0.011977 0
1.46315 0.00791527 0
1.45912 0.00360307 0
1.44525 -0.000436688 0
1.41591 -0.00371388 0
1.36278 -0.00582459 0
1.27643 -0.00656642 0
1.14877 -0.00605042 0
0.974915 -0.00469128 0
0.753614 -0.00303263 0
0.486249 -0.00152823 0
0.175547 -0.000454045 0
-0.179401 0.00110185 0
0.179402 9.78721e-06 0
0.497192 0.00110197 0
0.770045 0.00389659 0
0.993607 0.00772699 0
1.16601 0.0117106 0
1.2898 0.014914 0
1.37197 0.0166233 0
1.42213 0.0165336 0
1.45 0.0147536 0
1.46344 0.0116727 0
1.46732 0.00780415 0
1.46302 0.00368244 0
1.44842 -0.000176595 0
1.41795 -0.0032963 0
1.36349 -0.00529663 0
1.27593 -0.00600172 0
1.14746 -0.00553414 0
0.973315 -0.00429183 0
0.752163 -0.00277883 0
0.485213 -0.00140667 0
0.17511 -0.00042203 0
-0.178347 0.00104497 0
0.178348 9.28191e-06 0
0.494495 0.00104512 0
0.766347 0.00368523 0
0.989761 0.00730957 0
1.16291 0.0111018 0
1.28815 0.0141883 0
1.37206 0.0158839 0
1.42385 0.0158762 0
1.45297 0.0142437 0
1.46718 0.0113435 0
1.4713 0.00766627 0
1.46675 0.00373438 0
1.45143 5.50227e-05 0
1.41988 -0.00290937 0
1.36417 -0.00480176 0
1.27548 -0.00547041 0
1.14626 -0.00504737 0
0.971855 -0.003914 0
0.750839 -0.00253744 0
0.484263 -0.00129 0
0.174703 -0.000390742 0
-0.177349 0.000989366 0
0.177349 8.788e-06 0
0.491946 0.000989568 0
0.762848 0.00347736 0
0.9861 0.00689763 0
1.15994 0.010498 0
1.28651 0.013463 0
1.37206 0.015137 0
1.42542 0.0152022 0
1.45577 0.01371 0
1.47073 0.0109865 0
1.47509 0.00749921 0
1.47031 0.00375699 0
1.45429 0.000256787 0
1.42171 -0.00255386 0
1.36482 -0.00434005 0
1.27508 -0.00497213 0
1.14517 -0.00458975 0
0.970527 -0.00355786 0
0.749635 -0.00230895 0
0.483396 -0.00117873 0
0.174327 -0.00036041 0
-0.176403 0.000934355 0
0.176404 8.29943e-06 0
0.489545 0.00093462 0
0.759547 0.00327082 0
0.982625 0.00648736 0
1.15707 0.00989438 0
1.2849 0.012733 0
1.372 0.0143775 0
1.42686 0.0145074 0
1.4584 0.0131492 0
1.4741 0.0105989 0
1.47871 0.00730062 0
1.47369 0.00374831 0
1.45701 0.000427188 0
1.42344 -0.00223075 0
1.36543 -0.00391197 0
1.27471 -0.004507 0
1.14417 -0.00416142 0
0.969322 -0.00322389 0
0.748545 -0.00209406 0
0.482607 -0.00107344 0
0.17398 -0.000331278 0
-0.17551 0.000879216 0
0.175511 7.80978e-06 0
0.48729 0.000879559 0
0.756442 0.00306346 0
0.979336 0.00607512 0
1.15433 0.00928621 0
1.28331 0.0119934 0
1.37188 0.0136011 0
1.42818 0.0137881 0
1.46087 0.0125581 0
1.47728 0.0101781 0
1.48214 0.00706833 0
1.47689 0.00370651 0
1.45957 0.000564754 0
1.42506 -0.00194109 0
1.36601 -0.00351817 0
1.27437 -0.00407542 0
1.14327 -0.00376283 0
0.968232 -0.00291274 0
0.747561 -0.00189353 0
0.481891 -0.000974724 0
0.173661 -0.000303586 0
-0.17467 0.000823231 0
0.17467 7.31266e-06 0
0.485183 0.000823666 0
0.753535 0.00285326 0
0.976237 0.00565764 0
1.15172 0.00866941 0
1.28176 0.0112399 0
1.3717 0.012804 0
1.42936 0.0130411 0
1.46317 0.0119341 0
1.48028 0.00972193 0
1.48538 0.00680052 0
1.47993 0.00363006 0
1.46199 0.000668227 0
1.42659 -0.00168584 0
1.36655 -0.00315929 0
1.27407 -0.00367786 0
1.14245 -0.00339451 0
0.967249 -0.00262509 0
0.746675 -0.00170805 0
0.481244 -0.000883091 0
0.173369 -0.000277549 0
-0.173884 0.000765744 0
0.173883 6.80227e-06 0
0.483224 0.000766287 0
0.750828 0.00263852 0
0.97333 0.00523221 0
1.14924 0.00804067 0
1.28025 0.0104691 0
1.37147 0.0119832 0
1.43043 0.0122641 0
1.4653 0.0112755 0
1.48311 0.00922901 0
1.48845 0.006496 0
1.48279 0.00351791 0
1.46427 0.000736731 0
1.42801 -0.00146567 0
1.36705 -0.00283581 0
1.2738 -0.0033147 0
1.14171 -0.00305687 0
0.966364 -0.00236144 0
0.745879 -0.00153816 0
0.480661 -0.000798925 0
0.173102 -0.000253342 0
-0.173152 0.000706233 0
0.173151 6.27395e-06 0
0.481417 0.000706896 0
0.748325 0.00241806 0
0.970619 0.00479701 0
1.1469 0.00739782 0
1.27879 0.00967899 0
1.3712 0.0111368 0
1.43139 0.0114557 0
1.46728 0.0105813 0
1.48575 0.00869873 0
1.49132 0.00615431 0
1.48547 0.00336969 0
1.46639 0.000769948 0
1.42933 -0.0012808 0
1.36751 -0.00254785 0
1.27355 -0.00298604 0
1.14104 -0.00275006 0
0.965571 -0.00212204 0
0.745167 -0.00138409 0
0.480135 -0.000722435 0
0.172859 -0.000231081 0
-0.172478 0.00064438 0
0.172476 5.72487e-06 0
0.479766 0.00064517 0
0.746029 0.00219136 0
0.968109 0.00435141 0
1.14469 0.00674015 0
1.27738 0.00886891 0
1.37089 0.0102648 0
1.43223 0.0106161 0
1.4691 0.00985202 0
1.4882 0.00813163 0