# vtk DataFile Version 3.0
vtk output
ASCII
DATASET UNSTRUCTURED_GRID
POINTS 1913 double
0.045977 0 0
0.045977 0.0952381 0
0.045977 0.142857 0
0.045977 0.190476 0
0.045977 0.238095 0
0.045977 0.285714 0
0.045977 0.333333 0
0.045977 0.380952 0
0.045977 0.428571 0
0.045977 0.47619 0
0.045977 0.52381 0
0.045977 0.571429 0
0.045977 0.619048 0
0.045977 0.666667 0
0.045977 0.714286 0
0.045977 0.761905 0
0.045977 0.809524 0
0.045977 0.857143 0
0.045977 0.904762 0
0.045977 0.952381 0
0.045977 1 0
0.091954 0 0
0.091954 0.047619 0
0.091954 0.0952381 0
0.091954 0.142857 0
0.091954 0.190476 0
0.091954 0.238095 0
0.091954 0.285714 0
0.091954 0.333333 0
0.091954 0.380952 0
0.091954 0.428571 0
0.091954 0.47619 0
0.091954 0.52381 0
0.091954 0.571429 0
0.091954 0.619048 0
0.091954 0.666667 0
0.091954 0.714286 0
0.091954 0.761905 0
0.091954 0.809524 0
0.091954 0.857143 0
0.091954 0.904762 0
0.091954 0.952381 0
0.091954 1 0
0.137931 0 0
0.137931 0.047619 0
0.137931 0.0952381 0
0.137931 0.142857 0
0.137931 0.190476 0
0.137931 0.238095 0
0.137931 0.285714 0
0.137931 0.333333 0
0.137931 0.380952 0
0.137931 0.428571 0
0.137931 0.47619 0
0.137931 0.52381 0
0.137931 0.571429 0
0.137931 0.619048 0
0.137931 0.666667 0
0.137931 0.714286 0
0.137931 0.761905 0
0.137931 0.809524 0
0.137931 0.857143 0
0.137931 0.904762 0
0.137931 0.952381 0
0.137931 1 0
0.183908 0 0
0.183908 0.047619 0
0.183908 0.0952381 0
0.183908 0.142857 0
0.183908 0.190476 0
0.183908 0.238095 0
0.183908 0.285714 0
0.183908 0.333333 0
0.183908 0.380952 0
0.183908 0.428571 0
0.183908 0.47619 0
0.183908 0.52381 0
0.183908 0.571429 0
0.183908 0.619048 0
0.183908 0.666667 0
0.183908 0.714286 0
0.183908 0.761905 0
0.183908 0.809524 0
0.183908 0.857143 0
0.183908 0.904762 0
0.183908 0.952381 0
0.183908 1 0
0.229885 0 0
0.229885 0.047619 0
0.229885 0.0952381 0
0.229885 0.142857 0
0.229885 0.190476 0
0.229885 0.238095 0
0.229885 0.285714 0
0.229885 0.333333 0
0.229885 0.380952 0
0.229885 0.428571 0
0.229885 0.47619 0
0.229885 0.52381 0
0.229885 0.571429 0
0.229885 0.619048 0
0.229885 0.666667 0
0.229885 0.714286 0
0.229885 0.761905 0
0.229885 0.809524 0
0.229885 0.857143 0
0.229885 0.904762 0
0.229885 0.952381 0
0.229885 1 0
0.275862 0 0
0.275862 0.047619 0
0.275862 0.0952381 0
0.275862 0.142857 0
0.275862 0.190476 0
0.275862 0.238095 0
0.275862 0.285714 0
0.275862 0.333333 0
0.275862 0.380952 0
0.275862 0.428571 0
0.275862 0.47619 0
0.275862 0.52381 0
0.275862 0.571429 0
0.275862 0.619048 0
0.275862 0.666667 0
0.275862 0.714286 0
0.275862 0.761905 0
0.275862 0.809524 0
0.275862 0.857143 0
0.275862 0.904762 0
0.275862 0.952381 0
0.275862 1 0
0.321839 0 0
0.321839 0.047619 0
0.321839 0.0952381 0
0.321839 0.142857 0
0.321839 0.190476 0
0.321839 0.238095 0
0.321839 0.285714 0
0.321839 0.333333 0
0.321839 0.380952 0
0.321839 0.428571 0
0.321839 0.47619 0
0.321839 0.52381 0
0.321839 0.571429 0
0.321839 0.619048 0
0.321839 0.666667 0
0.321839 0.714286 0
0.321839 0.761905 0
0.321839 0.809524 0
0.321839 0.857143 0
0.321839 0.904762 0
0.321839 0.952381 0
0.321839 1 0
0.367816 0 0
0.367816 0.047619 0
0.367816 0.0952381 0
0.367816 0.142857 0
0.367816 0.190476 0
0.367816 0.238095 0
0.367816 0.285714 0
0.367816 0.333333 0
0.367816 0.380952 0
0.367816 0.428571 0
0.367816 0.47619 0
0.367816 0.52381 0
0.367816 0.571429 0
0.367816 0.619048 0
0.367816 0.666667 0
0.367816 0.714286 0
0.367816 0.761905 0
0.367816 0.809524 0
0.367816 0.857143 0
0.367816 0.904762 0
0.367816 0.952381 0
0.367816 1 0
0.413793 0 0
0.413793 0.047619 0
0.413793 0.0952381 0
0.413793 0.142857 0
0.413793 0.190476 0
0.413793 0.238095 0
0.413793 0.285714 0
0.413793 0.333333 0
0.413793 0.380952 0
0.413793 0.428571 0
0.413793 0.47619 0
0.413793 0.52381 0
0.413793 0.571429 0
0.413793 0.619048 0
0.413793 0.666667 0
0.413793 0.714286 0
0.413793 0.761905 0
0.413793 0.809524 0
0.413793 0.857143 0
0.413793 0.904762 0
0.413793 0.952381 0
0.413793 1 0
0.45977 0 0
0.45977 0.047619 0
0.45977 0.0952381 0
0.45977 0.142857 0
0.45977 0.190476 0
0.45977 0.238095 0
0.45977 0.285714 0
0.45977 0.333333 0
0.45977 0.380952 0
0.45977 0.428571 0
0.45977 0.47619 0
0.45977 0.52381 0
0.45977 0.571429 0
0.45977 0.619048 0
0.45977 0.666667 0
0.45977 0.714286 0
0.45977 0.761905 0
0.45977 0.809524 0
0.45977 0.857143 0
0.45977 0.904762 0
0.45977 0.952381 0
0.45977 1 0
0.505747 0 0
0.505747 0.047619 0
0.505747 0.0952381 0
0.505747 0.142857 0
0.505747 0.190476 0
0.505747 0.238095 0
0.505747 0.285714 0
0.505747 0.333333 0
0.505747 0.380952 0
0.505747 0.428571 0
0.505747 0.47619 0
0.505747 0.52381 0
0.505747 0.571429 0
0.505747 0.619048 0
0.505747 0.666667 0
0.505747 0.714286 0
0.505747 0.761905 0
0.505747 0.809524 0
0.505747 0.857143 0
0.505747 0.904762 0
0.505747 0.952381 0
0.505747 1 0
0.551724 0 0
0.551724 0.047619 0
0.551724 0.0952381 0
0.551724 0.142857 0
0.551724 0.190476 0
0.551724 0.238095 0
0.551724 0.285714 0
0.551724 0.333333 0
0.551724 0.380952 0
0.551724 0.428571 0
0.551724 0.47619 0
0.551724 0.52381 0
0.551724 0.571429 0
0.551724 0.619048 0
0.551724 0.666667 0
0.551724 0.714286 0
0.551724 0.761905 0
0.551724 0.809524 0
0.551724 0.857143 0
0.551724 0.904762 0
0.551724 0.952381 0
0.551724 1 0
0.597701 0 0
0.597701 0.047619 0
0.597701 0.0952381 0
0.597701 0.142857 0
0.597701 0.190476 0
0.597701 0.238095 0
0.597701 0.285714 0
0.597701 0.333333 0
0.597701 0.380952 0
0.597701 0.428571 0
0.597701 0.47619 0
0.597701 0.52381 0
0.597701 0.571429 0
0.597701 0.619048 0
0.597701 0.666667 0
0.597701 0.714286 0
0.597701 0.761905 0
0.597701 0.809524 0
0.597701 0.857143 0
0.597701 0.904762 0
0.597701 0.952381 0
0.597701 1 0
0.643678 0 0
0.643678 0.047619 0
0.643678 0.0952381 0
0.643678 0.142857 0
0.643678 0.190476 0
0.643678 0.238095 0
0.643678 0.285714 0
0.643678 0.333333 0
0.643678 0.380952 0
0.643678 0.428571 0
0.643678 0.47619 0
0.643678 0.52381 0
0.643678 0.571429 0
0.643678 0.619048 0
0.643678 0.666667 0
0.643678 0.714286 0
0.643678 0.761905 0
0.643678 0.809524 0
0.643678 0.857143 0
0.643678 0.904762 0
0.643678 0.952381 0
0.643678 1 0
0.689655 0 0
0.689655 0.047619 0
0.689655 0.0952381 0
0.689655 0.142857 0
0.689655 0.190476 0
0.689655 0.238095 0
0.689655 0.285714 0
0.689655 0.333333 0
0.689655 0.380952 0
0.689655 0.428571 0
0.689655 0.47619 0
0.689655 0.52381 0
0.689655 0.571429 0
0.689655 0.619048 0
0.689655 0.666667 0
0.689655 0.714286 0
0.689655 0.761905 0
0.689655 0.809524 0
0.689655 0.857143 0
0.689655 0.904762 0
0.689655 0.952381 0
0.689655 1 0
0.735632 0 0
0.735632 0.047619 0
0.735632 0.0952381 0
0.735632 0.142857 0
0.735632 0.190476 0
0.735632 0.238095 0
0.735632 0.285714 0
0.735632 0.333333 0
0.735632 0.380952 0
0.735632 0.428571 0
0.735632 0.47619 0
0.735632 0.52381 0
0.735632 0.571429 0
0.735632 0.619048 0
0.735632 0.666667 0
0.735632 0.714286 0
0.735632 0.761905 0
0.735632 0.809524 0
0.735632 0.857143 0
0.735632 0.904762 0
0.735632 0.952381 0
0.735632 1 0
0.781609 0 0
0.781609 0.047619 0
0.781609 0.0952381 0
0.781609 0.142857 0
0.781609 0.190476 0
0.781609 0.238095 0
0.781609 0.285714 0
0.781609 0.333333 0
0.781609 0.380952 0
0.781609 0.428571 0
0.781609 0.47619 0
0.781609 0.52381 0
0.781609 0.571429 0
0.781609 0.619048 0
0.781609 0.666667 0
0.781609 0.714286 0
0.781609 0.761905 0
0.781609 0.809524 0
0.781609 0.857143 0
0.781609 0.904762 0
0.781609 0.952381 0
0.781609 1 0
0.827586 0 0
0.827586 0.047619 0
0.827586 0.0952381 0
0.827586 0.142857 0
0.827586 0.190476 0
0.827586 0.238095 0
0.827586 0.285714 0
0.827586 0.333333 0
0.827586 0.380952 0
0.827586 0.428571 0
0.827586 0.47619 0
0.827586 0.52381 0
0.827586 0.571429 0
0.827586 0.619048 0
0.827586 0.666667 0
0.827586 0.714286 0
0.827586 0.761905 0
0.827586 0.809524 0
0.827586 0.857143 0
0.827586 0.904762 0
0.827586 0.952381 0
0.827586 1 0
0.873563 0 0
0.873563 0.047619 0
0.873563 0.0952381 0
0.873563 0.142857 0
0.873563 0.190476 0
0.873563 0.238095 0
0.873563 0.285714 0
0.873563 0.333333 0
0.873563 0.380952 0
0.873563 0.428571 0
0.873563 0.47619 0
0.873563 0.52381 0
0.873563 0.571429 0
0.873563 0.619048 0
0.873563 0.666667 0
0.873563 0.714286 0
0.873563 0.761905 0
0.873563 0.809524 0
0.873563 0.857143 0
0.873563 0.904762 0
0.873563 0.952381 0
0.873563 1 0
0.91954 0 0
0.91954 0.047619 0
0.91954 0.0952381 0
0.91954 0.142857 0
0.91954 0.190476 0
0.91954 0.238095 0
0.91954 0.285714 0
0.91954 0.333333 0
0.91954 0.380952 0
0.91954 0.428571 0
0.91954 0.47619 0
0.91954 0.52381 0
0.91954 0.571429 0
0.91954 0.619048 0
0.91954 0.666667 0
0.91954 0.714286 0
0.91954 0.761905 0
0.91954 0.809524 0
0.91954 0.857143 0
0.91954 0.904762 0
0.91954 0.952381 0
0.91954 1 0
0.965517 0 0
0.965517 0.047619 0
0.965517 0.0952381 0
0.965517 0.142857 0
0.965517 0.190476 0
0.965517 0.238095 0
0.965517 0.285714 0
0.965517 0.333333 0
0.965517 0.380952 0
0.965517 0.428571 0
0.965517 0.47619 0
0.965517 0.52381 0
0.965517 0.571429 0
0.965517 0.619048 0
0.965517 0.666667 0
0.965517 0.714286 0
0.965517 0.761905 0
0.965517 0.809524 0
0.965517 0.857143 0
0.965517 0.904762 0
0.965517 0.952381 0
0.965517 1 0
1.01149 0 0
1.01149 0.047619 0
1.01149 0.0952381 0
1.01149 0.142857 0
1.01149 0.190476 0
1.01149 0.238095 0
1.01149 0.285714 0
1.01149 0.333333 0
1.01149 0.380952 0
1.01149 0.428571 0
1.01149 0.47619 0
1.01149 0.52381 0
1.01149 0.571429 0
1.01149 0.619048 0
1.01149 0.666667 0
1.01149 0.714286 0
1.01149 0.761905 0
1.01149 0.809524 0
1.01149 0.857143 0
1.01149 0.904762 0
1.01149 0.952381 0
1.01149 1 0
1.05747 0 0
1.05747 0.047619 0
1.05747 0.0952381 0
1.05747 0.142857 0
1.05747 0.190476 0
1.05747 0.238095 0
1.05747 0.285714 0
1.05747 0.333333 0
1.05747 0.380952 0
1.05747 0.428571 0
1.05747 0.47619 0
1.05747 0.52381 0
1.05747 0.571429 0
1.05747 0.619048 0
1.05747 0.666667 0
1.05747 0.714286 0
1.05747 0.761905 0
1.05747 0.809524 0
1.05747 0.857143 0
1.05747 0.904762 0
1.05747 0.952381 0
1.05747 1 0
1.10345 0 0
1.10345 0.047619 0
1.10345 0.0952381 0
1.10345 0.142857 0
1.10345 0.190476 0
1.10345 0.238095 0
1.10345 0.285714 0
1.10345 0.333333 0
1.10345 0.380952 0
1.10345 0.428571 0
1.10345 0.47619 0
1.10345 0.52381 0
1.10345 0.571429 0
[...]
POINT_DATA 1913
VECTORS velocity[m/s] double
-0 0.174032 0
0 0.174476 0
0 0.153238 0
0 0.117834 0
0 0.0895816 0
0 0.0681014 0
0 0.0512521 0
0 0.0374283 0
0 0.0255485 0
0 0.0148637 0
0 0.00481538 0
0 -0.00506086 0
0 -0.0152082 0
0 -0.0261173 0
0 -0.038411 0
0 -0.0529725 0
0 -0.0711652 0
0 -0.0952159 0
0 -0.12869 0
0 -0.174828 0
0 -0.211553 0
-0.857542 0.140737 0
0.85792 0.0012413 0
1.04734 0.141359 0
1.06165 0.139221 0
1.05537 0.110304 0
1.04937 0.0847366 0
1.04534 0.0649236 0
1.04276 0.0491924 0
1.04114 0.0361131 0
1.04017 0.0247388 0
1.03965 0.014419 0
1.03952 0.00466482 0
1.03974 -0.00493442 0
1.04035 -0.0147706 0
1.0415 -0.0252714 0
1.0434 -0.0369647 0
1.04652 -0.0505732 0
1.05168 -0.0671698 0
1.06014 -0.0883938 0
1.07156 -0.116184 0
1.06154 -0.147668 0
0.820963 -0.146956 0
-0.722891 0.0898015 0
0.722675 0.000807636 0
1.04943 0.0904443 0
1.0896 0.103556 0
1.08008 0.0896066 0
1.06853 0.0725532 0
1.06055 0.0574294 0
1.05542 0.0444467 0
1.05215 0.0330956 0
1.05016 0.0228883 0
1.0491 0.0134275 0
1.04881 0.00438137 0
1.04926 -0.00454539 0
1.05052 -0.0136374 0
1.05281 -0.0231923 0
1.05657 -0.0335426 0
1.06257 -0.0450735 0
1.0722 -0.0582114 0
1.08699 -0.0732522 0
1.10199 -0.0893062 0
1.06088 -0.0993806 0
0.679101 -0.0774232 0
-0.637013 0.0488833 0
0.636183 0.000440542 0
1.03681 0.0493509 0
1.1031 0.0671425 0
1.09658 0.0653366 0
1.08316 0.0571738 0
1.07312 0.0475737 0
1.06641 0.0380332 0
1.06204 0.0289353 0
1.05933 0.0203024 0
1.05787 0.0120352 0
1.05747 0.00399335 0
1.05807 -0.00397543 0
1.05978 -0.0120233 0
1.06284 -0.0202928 0
1.06774 -0.0288981 0
1.07529 -0.0378752 0
1.08675 -0.0470547 0
1.10253 -0.0557182 0
1.11175 -0.0616346 0
1.03972 -0.0586984 0
0.604383 -0.0355796 0
-0.590299 0.0242808 0
0.589022 0.000219056 0
1.01967 0.0245363 0
1.10489 0.0403836 0
1.10451 0.0446692 0
1.09248 0.0425862 0
1.08238 0.0375011 0
1.07524 0.0311361 0
1.07042 0.0243024 0
1.06735 0.0173545 0
1.06567 0.0104247 0
1.0652 0.00353967 0
1.06588 -0.00331894 0
1.06781 -0.0101782 0
1.07119 -0.017042 0
1.07644 -0.0238485 0
1.0842 -0.0303942 0
1.09516 -0.0361892 0
1.10828 -0.0401766 0
1.10896 -0.040254 0
1.01743 -0.032923 0
0.570071 -0.0157751 0
-0.567134 0.0118577 0
0.565613 0.000106965 0
1.00442 0.0119678 0
1.1008 0.0237944 0
1.10656 0.0297129 0
1.09743 0.0307167 0
1.08857 0.0285802 0
1.08188 0.0246508 0
1.07717 0.0197605 0
1.07409 0.0143807 0
1.07237 0.00876841 0
1.07187 0.00306183 0
1.07255 -0.00265714 0
1.07448 -0.00831951 0
1.07781 -0.01383 0
1.08281 -0.0190198 0
1.08984 -0.0235789 0
1.09905 -0.0269519 0
1.1084 -0.0281954 0
1.10193 -0.0258884 0
1.00092 -0.0185976 0
0.554886 -0.00731805 0
-0.55586 0.0061248 0
0.554235 5.517e-05 0
0.99305 0.00616253 0
1.09513 0.0143163 0
1.10564 0.0197396 0
1.09954 0.0218442 0
1.09241 0.021333 0
1.08665 0.0190556 0
1.08241 0.0156696 0
1.07955 0.0116205 0
1.07792 0.00719823 0
1.07744 0.00259525 0
1.07807 -0.00204698 0
1.07985 -0.00659992 0
1.08287 -0.0109125 0
1.08726 -0.0147727 0
1.09314 -0.0178609 0
1.1003 -0.0196973 0
1.10622 -0.0196058 0
1.09494 -0.0168036 0
0.990082 -0.0109635 0
0.547868 -0.00375693 0
-0.550075 0.00349357 0
0.548413 3.14026e-05 0
0.985227 0.00350267 0
1.08995 0.00898886 0
1.10366 0.0132912 0
1.10008 0.0154944 0
1.09466 0.0157429 0
1.08997 0.0144936 0
1.08637 0.0121957 0
1.08387 0.00920697 0
1.08242 0.0057957 0
1.08197 0.00216479 0
1.08251 -0.00152021 0
1.08406 -0.0051042 0
1.08664 -0.00841643 0
1.09029 -0.0112446 0
1.09497 -0.0133102 0
1.10026 -0.0142523 0
1.10357 -0.0136456 0
1.08935 -0.0111271 0
0.983173 -0.00681937 0
0.544291 -0.0021632 0
-0.546807 0.00219614 0
0.545137 1.97043e-05 0
0.979981 0.00219606 0
1.08584 0.00590567 0
1.10158 0.0091187 0
1.09989 0.0110313 0
1.09591 0.011558 0
1.09224 0.0109096 0
1.08931 0.0093652 0
1.08721 0.00718685 0
1.08597 0.00459742 0
1.08558 0.00178427 0
1.08602 -0.00108808 0
1.08731 -0.00386226 0
1.08942 -0.00637206 0
1.09233 -0.00842816 0
1.09593 -0.00980892 0
1.09973 -0.010264 0
1.10119 -0.00954793 0
1.08524 -0.00752671 0
0.978727 -0.00444703 0
0.542252 -0.00136478 0
-0.544781 0.00148004 0
0.543111 1.32632e-05 0
0.976449 0.00147779 0
1.08279 0.00402791 0
1.09979 0.00637194 0
1.09944 0.0079044 0
1.09659 0.00847484 0
1.09378 0.00816091 0
1.09146 0.00712538 0
1.08976 0.00554956 0
1.08874 0.00360731 0
1.0884 0.00145854 0
1.08875 -0.000747889 0
1.08978 -0.00286726 0
1.09146 -0.00475123 0
1.09372 -0.00624211 0
1.09641 -0.00717268 0
1.09909 -0.00737707 0
1.09928 -0.00672251 0
1.08231 -0.0051835 0
0.975801 -0.00300206 0
0.540984 -0.000912765 0
-0.543438 0.00104104 0
0.54177 9.32272e-06 0
0.974036 0.00103872 0
1.08058 0.00282347 0
1.09836 0.00452276 0
1.09893 0.00570416 0
1.09694 0.00622024 0
1.09483 0.00608499 0
1.09303 0.00538889 0
1.09169 0.00425354 0
1.09086 0.00280941 0
1.09058 0.00118627 0
1.09084 -0.000489176 0
1.09165 -0.00209207 0
1.09294 -0.00349729 0
1.09466 -0.00457905 0
1.09666 -0.00521491 0
1.0985 -0.00529753 0
1.09785 -0.00475894 0
1.08026 -0.00361782 0
0.973833 -0.00207343 0
0.540151 -0.00063102 0
-0.542513 0.000751724 0
0.540847 6.72901e-06 0
0.972361 0.000749787 0
1.07898 0.002018 0
1.09726 0.00325105 0
1.09848 0.00414463 0
1.09712 0.00457571 0
1.09555 0.0045319 0
1.09417 0.00406159 0
1.09313 0.00324512 0
1.09247 0.00217818 0
1.09224 0.000962564 0
1.09244 -0.000298315 0
1.09305 -0.0015014 0
1.09404 -0.00254518 0
1.09533 -0.00333209 0
1.09679 -0.00377386 0
1.09803 -0.00380155 0
1.09679 -0.00338232 0
1.07881 -0.00254834 0
0.972488 -0.00145266 0
0.53959 -0.000444301 0
-0.541863 0.000552676 0
0.540199 4.94587e-06 0
0.971183 0.000551158 0
1.07784 0.00146299 0
1.09645 0.00236089 0
1.09811 0.00303056 0
1.09721 0.00337597 0
1.09605 0.00337639 0
1.09501 0.00305679 0
1.09421 0.00247002 0
1.09369 0.00168537 0
1.09351 0.000780915 0
1.09365 -0.00016147 0
1.09411 -0.00105938 0
1.09484 -0.0018327 0
1.0958 -0.00240714 0
1.09686 -0.00271946 0
1.09767 -0.0027252 0
1.09603 -0.0024097 0
1.0778 -0.00180549 0
0.971561 -0.00102659 0
0.539207 -0.000316177 0
-0.541402 0.000412286 0
0.539739 3.68873e-06 0
0.970347 0.000411121 0
1.07702 0.00107259 0
1.09585 0.00172913 0
1.09782 0.00222894 0
1.09725 0.00249936 0
1.0964 0.00251925 0
1.09562 0.00230091 0
1.09501 0.00187926 0
1.09461 0.00130416 0
1.09446 0.000634532 0
1.09456 -6.61705e-05 0
1.0949 -0.000733577 0
1.09544 -0.00130572 0
1.09614 -0.00172672 0
1.09691 -0.00195127 0
1.09741 -0.00195038 0
1.0955 -0.00171837 0
1.07709 -0.00128338 0
0.97092 -0.000729163 0
0.538947 -0.000226599 0
-0.541072 0.000311731 0
0.539411 2.7885e-06 0
0.969752 0.000310845 0
1.07643 0.000794023 0
1.09541 0.00127597 0
1.09761 0.00164852 0
1.09728 0.00185746 0
1.09665 0.00188422 0
1.09607 0.00173448 0
1.09561 0.00143148 0
1.0953 0.00101101 0
1.09518 0.000517062 0
1.09525 -1.95767e-06 0
1.09549 -0.000496631 0
1.09589 -0.000919719 0
1.0964 -0.00122951 0
1.09695 -0.00139349 0
1.09723 -0.00139245 0
1.09512 -0.00122488 0
1.0766 -0.000913461 0
0.970478 -0.000519345 0
0.538772 -0.000163352 0
-0.540837 0.000238926 0
0.539176 2.13683e-06 0
0.969328 0.000238261 0
1.076 0.000593172 0
1.09509 0.000948236 0
1.09745 0.00122599 0
1.09729 0.00138625 0
1.09684 0.00141378 0
1.0964 0.00131087 0
1.09605 0.00109315 0
1.09582 0.000786302 0
1.09572 0.000422937 0
1.09577 3.95326e-05 0
1.09594 -0.000326446 0
1.09623 -0.000639366 0
1.09661 -0.000868262 0
1.09699 -0.000989727 0
1.09711 -0.000990774 0
1.09486 -0.000871681 0
1.07626 -0.000650045 0
0.970176 -0.000370393 0
0.538656 -0.000118476 0
-0.540669 0.000185754 0
0.539009 1.66096e-06 0
0.969026 0.000185262 0
1.0757 0.000447188 0
1.09486 0.000709631 0
1.09733 0.000916952 0
1.09731 0.00103942 0
1.09698 0.00106498 0
1.09666 0.000994258 0
1.09639 0.00083787 0
1.09621 0.000614264 0
1.09614 0.000347474 0
1.09616 6.47637e-05 0
1.09629 -0.000205735 0
1.0965 -0.000437357 0
1.09676 -0.000607197 0
1.09704 -0.000698326 0
1.09704 -0.000701814 0
1.09469 -0.000618563 0
1.07603 -0.00046192 0
0.969974 -0.000264275 0
0.538583 -8.65595e-05 0
-0.54055 0.000146613 0
0.53889 1.3107e-06 0
0.968812 0.000146256 0
1.07549 0.000340366 0
1.0947 0.000534935 0
1.09725 0.00068995 0
1.09732 0.000783413 0
1.09709 0.000805979 0
1.09685 0.000757495 0
1.09665 0.000645234 0
1.09651 0.000482467 0
1.09645 0.000286842 0
1.09646 7.86038e-05 0
1.09655 -0.000121274 0
1.0967 -0.000292949 0
1.09689 -0.000419521 0
1.09708 -0.000488701 0
1.097 -0.00049424 0
1.09458 -0.000437142 0
1.07588 -0.000327392 0
0.969842 -0.000188544 0
0.538538 -6.38359e-05 0
-0.540466 0.000117568 0
0.538806 1.05081e-06 0
0.968662 0.000117315 0
1.07534 0.000261719 0
1.09459 0.000406375 0
1.0972 0.000522529 0
1.09734 0.000593878 0
1.09717 0.000613252 0
1.09699 0.000580175 0
1.09684 0.000499671 0
1.09674 0.000381293 0
1.09669 0.000237964 0
1.09669 8.4646e-05 0
1.09675 -6.31055e-05 0
1.09686 -0.00019059 0
1.09699 -0.000285357 0
1.09712 -0.000338452 0
1.09698 -0.000345442 0
1.09451 -0.000307219 0
1.07579 -0.000231186 0
0.969759 -0.000134475 0
0.538514 -4.76476e-05 0
-0.540407 9.58219e-05 0
0.538748 8.56263e-07 0
0.968559 9.56507e-05 0
1.07523 0.000203461 0
1.09451 0.000311298 0
1.09717 0.000398545 0
1.09736 0.000453089 0
1.09724 0.000469452 0
1.09711 0.000447063 0
1.09699 0.000389409 0
1.09691 0.000303371 0
1.09687 0.000198396 0
1.09687 8.54975e-05 0
1.09691 -2.3831e-05 0
1.09699 -0.000118732 0
1.09708 -0.000190043 0
1.09717 -0.000231221 0
1.09698 -0.000239078 0
1.09447 -0.000214335 0
1.07573 -0.000162449 0
0.969711 -9.58847e-05 0
0.538505 -3.61041e-05 0
-0.540368 7.93762e-05 0
0.538709 7.09153e-07 0
0.96849 7.92674e-05 0
1.07517 0.000160026 0
1.09446 0.00024062 0
1.09715 0.000306331 0
1.09738 0.000348119 0
1.0973 0.000361806 0
1.0972 0.000346824 0
1.09711 0.000305603 0
1.09705 0.000243102 0
1.09701 0.000166212 0
1.09701 8.30208e-05 0
1.09704 1.99468e-06 0
1.09709 -6.88662e-05 0
1.09716 -0.000122821 0
1.09721 -0.000155079 0
1.09699 -0.000163322 0
1.09446 -0.000148099 0
1.0757 -0.00011342 0
0.969689 -6.83646e-05 0
0.538505 -2.7856e-05 0
-0.540342 6.6791e-05 0
0.538683 5.96596e-07 0
0.968446 6.67298e-05 0
1.07512 0.000127409 0
1.09443 0.000187788 0
1.09714 0.000237422 0
1.0974 0.000269527 0
1.09735 0.000280907 0
1.09727 0.000271045 0
1.0972 0.000241633 0
1.09716 0.000196245 0
1.09713 0.0001399 0
1.09712 7.85264e-05 0
1.09714 1.83448e-05 0
1.09718 -3.47587e-05 0
1.09722 -7.58279e-05 0
1.09725 -0.000101344 0
1.09701 -0.000109609 0
1.09446 -0.000101023 0
1.07569 -7.85295e-05 0
0.969683 -4.87565e-05 0
0.538512 -2.19385e-05 0
-0.540326 5.70267e-05 0
0.538667 5.09285e-07 0
0.968419 5.70014e-05 0
1.07509 0.000102712 0
1.09442 0.000148047 0
1.09715 0.000185655 0
1.09742 0.000210401 0
1.09739 0.000219832 0
1.09733 0.00021349 0
1.09728 0.000192555 0
1.09724 0.0001596 0
1.09722 0.000118277 0
1.09721 7.29209e-05 0
1.09722 2.80973e-05 0
1.09725 -1.18688e-05 0
1.09728 -4.33334e-05 0
1.09729 -6.37076e-05 0
1.09703 -7.17361e-05 0
1.09447 -6.77026e-05 0
1.07569 -5.37694e-05 0
0.969689 -3.47939e-05 0
0.538522 -1.76621e-05 0
-0.540318 4.93298e-05 0
0.538659 4.40475e-07 0
0.968406 4.93314e-05 0
1.07508 8.38336e-05 0
1.09441 0.000117939 0
1.09715 0.000146528 0
1.09744 0.000165673 0
1.09742 0.000173476 0
1.09738 0.000169539 0
1.09734 0.000154683 0
1.09731 0.000130756 0
1.09729 0.000100413 0
1.09729 6.68198e-05 0
1.09729 3.33225e-05 0
1.09731 3.09654e-06 0
1.09733 -2.11781e-05 0
1.09733 -3.75926e-05 0
1.09706 -4.52132e-05 0
1.09448 -4.42353e-05 0
1.07571 -3.62527e-05 0
0.969704 -2.4849e-05 0
0.538536 -1.45349e-05 0
-0.540314 4.31531e-05 0
0.538655 3.85268e-07 0
0.968402 4.31744e-05 0
1.07508 6.92409e-05 0
1.09441 9.49402e-05 0
1.09716 0.00011675 0
1.09746 0.000131624 0
1.09746 0.000138077 0
1.09743 0.000135769 0
1.09739 0.000125266 0
1.09737 0.000107893 0
1.09736 8.55779e-05 0
1.09735 6.06302e-05 0
1.09735 3.54988e-05 0
1.09736 1.25147e-05 0
1.09737 -6.35039e-06 0
1.09736 -1.96861e-05 0
1.09709 -2.67936e-05 0
1.0945 -2.78039e-05 0
1.07572 -2.38997e-05 0
0.969723 -1.77528e-05 0
0.538551 -1.22067e-05 0
-0.540315 3.80981e-05 0
0.538655 3.40099e-07 0
0.968405 3.81337e-05 0
1.07508 5.78165e-05 0
1.09442 7.72029e-05 0
1.09718 9.39041e-05 0
1.09748 0.000105515 0
1.09749 0.000110858 0
1.09746 0.000109642 0
1.09744 0.000102252 0
1.09742 8.96384e-05 0
1.09741 7.31973e-05 0
1.0974 5.46121e-05 0
1.0974 3.56741e-05 0
1.09741 1.80936e-05 0
1.09742 3.32241e-06 0
1.0974 -7.59516e-06 0
1.09712 -1.4133e-05 0
1.09453 -1.63766e-05 0
1.07575 -1.52133e-05 0
0.969745 -1.26669e-05 0
0.538567 -1.04291e-05 0
-0.540318 3.38743e-05 0
0.538659 3.02368e-07 0
0.968412 3.39203e-05 0
1.07509 4.87425e-05 0
1.09443 6.33736e-05 0
1.09719 7.62167e-05 0
1.0975 8.53298e-05 0
1.09751 8.97643e-05 0
1.0975 8.92704e-05 0
1.09748 8.41069e-05 0
1.09746 7.49522e-05 0
1.09745 6.28157e-05 0
1.09745 4.89233e-05 0
1.09745 3.45844e-05 0
1.09745 2.10542e-05 0
1.09745 9.40242e-06 0
1.09743 4.04409e-07 0
1.09715 -5.54152e-06 0
1.09455 -8.48991e-06 0
1.07577 -9.11705e-06 0
0.96977 -8.99108e-06 0
0.538584 -9.02673e-06 0
-0.540323 3.02694e-05 0
0.538664 2.70174e-07 0
0.968423 3.03226e-05 0
1.0751 4.14191e-05 0
1.09444 5.24577e-05 0
1.09721 6.23809e-05 0
1.09752 6.95799e-05 0
1.09754 7.32761e-05 0
1.09753 7.32538e-05 0
1.09751 6.96829e-05 0
1.0975 6.30459e-05 0
1.09749 5.40714e-05 0
1.09749 4.36509e-05 0
1.09748 3.27414e-05 0
1.09748 2.2264e-05 0
1.09749 1.30081e-05 0
1.09746 5.55089e-06 0
1.09717 1.95597e-07 0
1.09458 -3.0919e-06 0
1.0758 -4.83864e-06 0
0.969795 -6.29675e-06 0
0.5386 -7.8764e-06 0
-0.540329 2.71278e-05 0
0.53867 2.42124e-07 0
0.968436 2.71861e-05 0
1.07511 3.54056e-05 0
1.09446 4.37223e-05 0
1.09723 5.14325e-05 0
1.09754 5.7164e-05 0
1.09756 6.02647e-05 0
1.09755 6.05465e-05 0
1.09754 5.81174e-05 0
1.09753 5.33187e-05 0
1.09752 4.66752e-05 0
1.09752 3.88345e-05 0
1.09752 3.04958e-05 0
1.09752 2.23354e-05 0
1.09752 1.49366e-05 0
1.09749 8.73043e-06 0
1.0972 3.94915e-06 0
1.09461 5.71349e-07 0
1.07582 -1.82556e-06 0
0.96982 -4.279e-06 0
0.538616 -6.8921e-06 0
-0.540337 2.43352e-05 0
0.538677 2.17197e-07 0
0.96845 2.4397e-05 0
1.07513 3.03775e-05 0
1.09447 3.6627e-05 0
1.09724 4.26586e-05 0
1.09756 4.72661e-05 0
1.09759 4.98908e-05 0
1.09758 5.03676e-05 0
1.09757 4.87612e-05 0
1.09756 4.53114e-05 0
1.09755 4.03953e-05 0
1.09755 3.44827e-05 0
1.09755 2.80843e-05 0
1.09755 2.1697e-05 0
1.09754 1.57527e-05 0
1.09752 1.05744e-05 0
1.09723 6.34108e-06 0
1.09463 3.03852e-06 0
1.07584 3.16248e-07 0
0.969845 -2.72173e-06 0
0.538632 -6.01426e-06 0
-0.540345 2.18076e-05 0
0.538685 1.9464e-07 0
0.968465 2.18718e-05 0
1.07514 2.60948e-05 0
1.09449 3.07717e-05 0
1.09726 3.55307e-05 0
1.09758 3.92795e-05 0
1.09761 4.15288e-05 0
1.0976 4.21318e-05 0
1.09759 4.11235e-05 0
1.09759 3.86711e-05 0
1.09758 3.50444e-05 0
1.09758 3.0584e-05 0
1.09757 2.56626e-05 0
1.09757 2.06458e-05 0
1.09757 1.5854e-05 0
1.09754 1.15304e-05 0
1.09725 7.81363e-06 0
1.09465 4.69293e-06 0
1.07587 1.86665e-06 0
0.969869 -1.47253e-06 0
0.538647 -5.20202e-06 0
-0.540353 1.94829e-05 0
0.538693 1.73897e-07 0
0.96848 1.95487e-05 0
1.07516 2.23801e-05 0
1.0945 2.58596e-05 0
1.09727 2.96559e-05 0
1.0976 3.27525e-05 0
1.09763 3.47108e-05 0
1.09762 3.53991e-05 0
1.09761 3.48323e-05 0
1.09761 3.31254e-05 0
1.0976 3.04709e-05 0
1.0976 2.7115e-05 0
1.0976 2.333e-05 0
1.0976 1.93849e-05 0
1.09759 1.55182e-05 0
1.09757 1.19138e-05 0
1.09727 8.67965e-06 0
1.09468 5.80608e-06 0
1.07589 3.02349e-06 0
0.969892 -4.24577e-07 0
0.538661 -4.42765e-06 0
-0.540362 1.73148e-05 0
0.538702 1.54556e-07 0
0.968496 1.73818e-05 0
1.07517 1.91014e-05 0
1.09452 2.16699e-05 0
1.09729 2.47416e-05 0
1.09761 2.73472e-05 0
1.09764 2.90856e-05 0
1.09764 2.98375e-05 0
1.09763 2.9604e-05 0
1.09763 2.84631e-05 0
1.09763 2.65513e-05 0
1.09762 2.40463e-05 0
1.09762 2.11466e-05 0
1.09762 1.80509e-05 0
1.09762 1.49371e-05 0
1.09759 1.1945e-05 0
1.09729 9.15911e-06 0
1.0947 6.56917e-06 0
1.07591 3.9258e-06 0
0.969914 4.96554e-07 0
0.538675 -3.67258e-06 0
-0.54037 1.52691e-05 0
0.53871 1.36308e-07 0
0.968511 1.5337e-05 0
1.07519 1.61602e-05 0
1.09453 1.80377e-05 0
1.0973 2.05686e-05 0
1.09763 2.28103e-05 0
1.09766 2.43891e-05 0
1.09766 2.51955e-05 0
1.09765 2.52218e-05 0
1.09765 2.45195e-05 0
1.09764 2.31847e-05 0
1.09764 2.13453e-05 0
1.09764 1.91462e-05 0
1.09764 1.67339e-05 0
1.09764 1.42417e-05 0
1.09761 1.17768e-05 0
1.09731 9.40555e-06 0
1.09472 7.116e-06 0
1.07593 4.67071e-06 0
0.969934 1.34229e-06 0
0.538688 -2.92458e-06 0
-0.540379 1.33201e-05 0
0.538718 1.18925e-07 0
0.968525 1.33887e-05 0
1.0752 1.34829e-05 0
1.09454 1.48393e-05 0
1.09732 1.69724e-05 0
1.09764 1.89511e-05 0
1.09767 2.04213e-05 0
1.09767 2.12817e-05 0
1.09767 2.15189e-05 0
1.09766 2.11655e-05 0
1.09766 2.02885e-05 0
1.09766 1.89796e-05 0
1.09766 1.73444e-05 0
1.09766 1.54912e-05 0
1.09765 1.35203e-05 0
1.09762 1.15141e-05 0
1.09733 9.5253e-06 0
1.09473 7.53956e-06 0
1.07595 5.32558e-06 0
0.969954 2.14791e-06 0
0.538701 -2.17576e-06 0
-0.540387 1.14484e-05 0
0.538726 1.02233e-07 0
0.968539 1.15176e-05 0
1.07521 1.10139e-05 0
1.09456 1.19818e-05 0
1.09733 1.38291e-05 0
1.09766 1.56254e-05 0
1.09769 1.70305e-05 0
1.09769 1.795e-05 0
1.09768 1.83665e-05 0
1.09768 1.82995e-05 0
1.09768 1.7795e-05 0
1.09767 1.69181e-05 0
1.09767 1.57458e-05 0
1.09767 1.43581e-05 0
1.09767 1.28309e-05 0
1.09764 1.1228e-05 0
1.09735 9.59133e-06 0
1.09475 7.90398e-06 0
1.07597 5.93686e-06 0
0.969972 2.93741e-06 0
0.538712 -1.42109e-06 0
-0.540395 9.6393e-06 0
0.538734 8.60998e-08 0
0.968552 9.70894e-06 0
1.07522 8.71112e-06 0
1.09457 9.39461e-06 0
1.09734 1.10449e-05 0
1.09767 1.27237e-05 0
1.0977 1.41013e-05 0
1.0977 1.50881e-05 0
1.09769 1.56647e-05 0
1.09769 1.58413e-05 0
1.09769 1.56484e-05 0
1.09769 1.51321e-05 0
1.09769 1.43479e-05 0
1.09769 1.33551e-05 0
1.09768 1.22112e-05 0
1.09765 1.09661e-05 0
1.09736 9.65334e-06 0
1.09476 8.25324e-06 0
1.07598 6.53637e-06 0
0.969988 3.72706e-06 0
0.538723 -6.57432e-07 0
-0.540402 7.88148e-06 0
0.538742 7.04253e-08 0
0.968564 7.95161e-06 0
1.07523 6.54263e-06 0
1.09458 7.02425e-06 0
1.09735 8.54808e-06 0
1.09768 1.01627e-05 0
1.09771 1.1545e-05 0
1.09771 1.26097e-05 0
1.09771 1.33359e-05 0
1.0977 1.37273e-05 0
1.0977 1.38033e-05 0
1.0977 1.35957e-05 0
1.0977 1.31443e-05 0
1.0977 1.24928e-05 0
1.09769 1.1685e-05 0
1.09767 1.07602e-05 0
1.09737 9.745e-06 0
1.09478 8.61746e-06 0
1.076 7.14596e-06 0
0.970004 4.52795e-06 0
0.538734 1.1722e-07 0
-0.540409 6.16625e-06 0
0.538749 5.51312e-08 0
0.968575 6.23686e-06 0
1.07524 4.48373e-06 0
1.09458 4.82961e-06 0
1.09736 6.284e-06 0
1.09768 7.87814e-06 0
1.09772 9.29328e-06 0
1.09772 1.04476e-05 0
1.09772 1.13193e-05 0
1.09771 1.19072e-05 0
1.09771 1.22226e-05 0
1.09771 1.22865e-05 0
1.09771 1.2127e-05 0
1.09771 1.17762e-05 0
1.09771 1.12672e-05 0
1.09768 1.0631e-05 0
1.09738 9.88926e-06 0
1.09479 9.01741e-06 0
1.07601 7.78084e-06 0
0.970017 5.34781e-06 0
0.538743 9.04218e-07 0
-0.540416 4.48675e-06 0
0.538755 4.01562e-08 0
0.968585 4.55786e-06 0
1.07525 2.51529e-06 0
1.09459 2.77889e-06 0
1.09736 4.21028e-06 0
1.09769 5.82047e-06 0
1.09772 7.29339e-06 0
1.09772 8.54973e-06 0
1.09772 9.56729e-06 0
1.09772 1.03411e-05 0
1.09772 1.08762e-05 0
1.09772 1.11855e-05 0
1.09772 1.12881e-05 0
1.09772 1.12069e-05 0
1.09771 1.0967e-05 0
1.09769 1.0593e-05 0
1.09739 1.01022e-05 0
1.0948 9.4679e-06 0
1.07602 8.452e-06 0
0.97003 6.19235e-06 0
0.538753 1.70466e-06 0
-0.540422 2.83749e-06 0
0.538761 2.54514e-08 0
0.968593 2.90913e-06 0
1.07526 6.22183e-07 0
1.0946 8.47177e-07 0
1.09737 2.29385e-06 0
1.0977 3.95104e-06 0
1.09773 5.50403e-06 0
1.09773 6.87541e-06 0
1.09773 8.04252e-06 0
1.09773 8.99739e-06 0
1.09773 9.74009e-06 0
1.09773 1.02772e-05 0
1.09772 1.06203e-05 0
1.09772 1.07855e-05 0
1.09772 1.07911e-05 0
1.09769 1.06565e-05 0
1.0974 1.03957e-05 0
1.0948 9.98022e-06 0
1.07603 9.16803e-06 0
0.970041 7.0663e-06 0
0.538761 2.51968e-06 0
-0.540428 1.21396e-06 0
0.538767 1.09763e-08 0
0.968601 1.28619e-06 0
1.07526 -1.20778e-06 0
1.0946 -9.85435e-07 0
1.09737 5.08418e-07 0
1.0977 2.23921e-06 0
1.09773 3.89258e-06 0
1.09773 5.39248e-06 0
1.09773 6.71561e-06 0
1.09773 7.8514e-06 0
1.09773 8.79567e-06 0
1.09773 9.54947e-06 0
1.09773 1.01186e-05 0
1.09773 1.05127e-05 0
1.09773 1.07449e-05 0
1.0977 1.08304e-05 0