# vtk DataFile Version 3.0
vtk output
ASCII
DATASET UNSTRUCTURED_GRID
POINTS 1913 double
0.045977 0 0
0.045977 0.0952381 0
0.045977 0.142857 0
0.045977 0.190476 0
0.045977 0.238095 0
0.045977 0.285714 0
0.045977 0.333333 0
0.045977 0.380952 0
0.045977 0.428571 0
0.045977 0.47619 0
0.045977 0.52381 0
0.045977 0.571429 0
0.045977 0.619048 0
0.045977 0.666667 0
0.045977 0.714286 0
0.045977 0.761905 0
0.045977 0.809524 0
0.045977 0.857143 0
0.045977 0.904762 0
0.045977 0.952381 0
0.045977 1 0
0.091954 0 0
0.091954 0.047619 0
0.091954 0.0952381 0
0.091954 0.142857 0
0.091954 0.190476 0
0.091954 0.238095 0
0.091954 0.285714 0
0.091954 0.333333 0
0.091954 0.380952 0
0.091954 0.428571 0
0.091954 0.47619 0
0.091954 0.52381 0
0.091954 0.571429 0
0.091954 0.619048 0
0.091954 0.666667 0
0.091954 0.714286 0
0.091954 0.761905 0
0.091954 0.809524 0
0.091954 0.857143 0
0.091954 0.904762 0
0.091954 0.952381 0
0.091954 1 0
0.137931 0 0
0.137931 0.047619 0
0.137931 0.0952381 0
0.137931 0.142857 0
0.137931 0.190476 0
0.137931 0.238095 0
0.137931 0.285714 0
0.137931 0.333333 0
0.137931 0.380952 0
0.137931 0.428571 0
0.137931 0.47619 0
0.137931 0.52381 0
0.137931 0.571429 0
0.137931 0.619048 0
0.137931 0.666667 0
0.137931 0.714286 0
0.137931 0.761905 0
0.137931 0.809524 0
0.137931 0.857143 0
0.137931 0.904762 0
0.137931 0.952381 0
0.137931 1 0
0.183908 0 0
0.183908 0.047619 0
0.183908 0.0952381 0
0.183908 0.142857 0
0.183908 0.190476 0
0.183908 0.238095 0
0.183908 0.285714 0
0.183908 0.333333 0
0.183908 0.380952 0
0.183908 0.428571 0
0.183908 0.47619 0
0.183908 0.52381 0
0.183908 0.571429 0
0.183908 0.619048 0
0.183908 0.666667 0
0.183908 0.714286 0
0.183908 0.761905 0
0.183908 0.809524 0
0.183908 0.857143 0
0.183908 0.904762 0
0.183908 0.952381 0
0.183908 1 0
0.229885 0 0
0.229885 0.047619 0
0.229885 0.0952381 0
0.229885 0.142857 0
0.229885 0.190476 0
0.229885 0.238095 0
0.229885 0.285714 0
0.229885 0.333333 0
0.229885 0.380952 0
0.229885 0.428571 0
0.229885 0.47619 0
0.229885 0.52381 0
0.229885 0.571429 0
0.229885 0.619048 0
0.229885 0.666667 0
0.229885 0.714286 0
0.229885 0.761905 0
0.229885 0.809524 0
0.229885 0.857143 0
0.229885 0.904762 0
0.229885 0.952381 0
0.229885 1 0
0.275862 0 0
0.275862 0.047619 0
0.275862 0.0952381 0
0.275862 0.142857 0
0.275862 0.190476 0
0.275862 0.238095 0
0.275862 0.285714 0
0.275862 0.333333 0
0.275862 0.380952 0
0.275862 0.428571 0
0.275862 0.47619 0
0.275862 0.52381 0
0.275862 0.571429 0
0.275862 0.619048 0
0.275862 0.666667 0
0.275862 0.714286 0
0.275862 0.761905 0
0.275862 0.809524 0
0.275862 0.857143 0
0.275862 0.904762 0
0.275862 0.952381 0
0.275862 1 0
0.321839 0 0
0.321839 0.047619 0
0.321839 0.0952381 0
0.321839 0.142857 0
0.321839 0.190476 0
0.321839 0.238095 0
0.321839 0.285714 0
0.321839 0.333333 0
0.321839 0.380952 0
0.321839 0.428571 0
0.321839 0.47619 0
0.321839 0.52381 0
0.321839 0.571429 0
0.321839 0.619048 0
0.321839 0.666667 0
0.321839 0.714286 0
0.321839 0.761905 0
0.321839 0.809524 0
0.321839 0.857143 0
0.321839 0.904762 0
0.321839 0.952381 0
0.321839 1 0
0.367816 0 0
0.367816 0.047619 0
0.367816 0.0952381 0
0.367816 0.142857 0
0.367816 0.190476 0
0.367816 0.238095 0
0.367816 0.285714 0
0.367816 0.333333 0
0.367816 0.380952 0
0.367816 0.428571 0
0.367816 0.47619 0
0.367816 0.52381 0
0.367816 0.571429 0
0.367816 0.619048 0
0.367816 0.666667 0
0.367816 0.714286 0
0.367816 0.761905 0
0.367816 0.809524 0
0.367816 0.857143 0
0.367816 0.904762 0
0.367816 0.952381 0
0.367816 1 0
0.413793 0 0
0.413793 0.047619 0
0.413793 0.0952381 0
0.413793 0.142857 0
0.413793 0.190476 0
0.413793 0.238095 0
0.413793 0.285714 0
0.413793 0.333333 0
0.413793 0.380952 0
0.413793 0.428571 0
0.413793 0.47619 0
0.413793 0.52381 0
0.413793 0.571429 0
0.413793 0.619048 0
0.413793 0.666667 0
0.413793 0.714286 0
0.413793 0.761905 0
0.413793 0.809524 0
0.413793 0.857143 0
0.413793 0.904762 0
0.413793 0.952381 0
0.413793 1 0
0.45977 0 0
0.45977 0.047619 0
0.45977 0.0952381 0
0.45977 0.142857 0
0.45977 0.190476 0
0.45977 0.238095 0
0.45977 0.285714 0
0.45977 0.333333 0
0.45977 0.380952 0
0.45977 0.428571 0
0.45977 0.47619 0
0.45977 0.52381 0
0.45977 0.571429 0
0.45977 0.619048 0
0.45977 0.666667 0
0.45977 0.714286 0
0.45977 0.761905 0
0.45977 0.809524 0
0.45977 0.857143 0
0.45977 0.904762 0
0.45977 0.952381 0
0.45977 1 0
0.505747 0 0
0.505747 0.047619 0
0.505747 0.0952381 0
0.505747 0.142857 0
0.505747 0.190476 0
0.505747 0.238095 0
0.505747 0.285714 0
0.505747 0.333333 0
0.505747 0.380952 0
0.505747 0.428571 0
0.505747 0.47619 0
0.505747 0.52381 0
0.505747 0.571429 0
0.505747 0.619048 0
0.505747 0.666667 0
0.505747 0.714286 0
0.505747 0.761905 0
0.505747 0.809524 0
0.505747 0.857143 0
0.505747 0.904762 0
0.505747 0.952381 0
0.505747 1 0
0.551724 0 0
0.551724 0.047619 0
0.551724 0.0952381 0
0.551724 0.142857 0
0.551724 0.190476 0
0.551724 0.238095 0
0.551724 0.285714 0
0.551724 0.333333 0
0.551724 0.380952 0
0.551724 0.428571 0
0.551724 0.47619 0
0.551724 0.52381 0
0.551724 0.571429 0
0.551724 0.619048 0
0.551724 0.666667 0
0.551724 0.714286 0
0.551724 0.761905 0
0.551724 0.809524 0
0.551724 0.857143 0
0.551724 0.904762 0
0.551724 0.952381 0
0.551724 1 0
0.597701 0 0
0.597701 0.047619 0
0.597701 0.0952381 0
0.597701 0.142857 0
0.597701 0.190476 0
0.597701 0.238095 0
0.597701 0.285714 0
0.597701 0.333333 0
0.597701 0.380952 0
0.597701 0.428571 0
0.597701 0.47619 0
0.597701 0.52381 0
0.597701 0.571429 0
0.597701 0.619048 0
0.597701 0.666667 0
0.597701 0.714286 0
0.597701 0.761905 0
0.597701 0.809524 0
0.597701 0.857143 0
0.597701 0.904762 0
0.597701 0.952381 0
0.597701 1 0
0.643678 0 0
0.643678 0.047619 0
0.643678 0.0952381 0
0.643678 0.142857 0
0.643678 0.190476 0
0.643678 0.238095 0
0.643678 0.285714 0
0.643678 0.333333 0
0.643678 0.380952 0
0.643678 0.428571 0
0.643678 0.47619 0
0.643678 0.52381 0
0.643678 0.571429 0
0.643678 0.619048 0
0.643678 0.666667 0
0.643678 0.714286 0
0.643678 0.761905 0
0.643678 0.809524 0
0.643678 0.857143 0
0.643678 0.904762 0
0.643678 0.952381 0
0.643678 1 0
0.689655 0 0
0.689655 0.047619 0
0.689655 0.0952381 0
0.689655 0.142857 0
0.689655 0.190476 0
0.689655 0.238095 0
0.689655 0.285714 0
0.689655 0.333333 0
0.689655 0.380952 0
0.689655 0.428571 0
0.689655 0.47619 0
0.689655 0.52381 0
0.689655 0.571429 0
0.689655 0.619048 0
0.689655 0.666667 0
0.689655 0.714286 0
0.689655 0.761905 0
0.689655 0.809524 0
0.689655 0.857143 0
0.689655 0.904762 0
0.689655 0.952381 0
0.689655 1 0
0.735632 0 0
0.735632 0.047619 0
0.735632 0.0952381 0
0.735632 0.142857 0
0.735632 0.190476 0
0.735632 0.238095 0
0.735632 0.285714 0
0.735632 0.333333 0
0.735632 0.380952 0
0.735632 0.428571 0
0.735632 0.47619 0
0.735632 0.52381 0
0.735632 0.571429 0
0.735632 0.619048 0
0.735632 0.666667 0
0.735632 0.714286 0
0.735632 0.761905 0
0.735632 0.809524 0
0.735632 0.857143 0
0.735632 0.904762 0
0.735632 0.952381 0
0.735632 1 0
0.781609 0 0
0.781609 0.047619 0
0.781609 0.0952381 0
0.781609 0.142857 0
0.781609 0.190476 0
0.781609 0.238095 0
0.781609 0.285714 0
0.781609 0.333333 0
0.781609 0.380952 0
0.781609 0.428571 0
0.781609 0.47619 0
0.781609 0.52381 0
0.781609 0.571429 0
0.781609 0.619048 0
0.781609 0.666667 0
0.781609 0.714286 0
0.781609 0.761905 0
0.781609 0.809524 0
0.781609 0.857143 0
0.781609 0.904762 0
0.781609 0.952381 0
0.781609 1 0
0.827586 0 0
0.827586 0.047619 0
0.827586 0.0952381 0
0.827586 0.142857 0
0.827586 0.190476 0
0.827586 0.238095 0
0.827586 0.285714 0
0.827586 0.333333 0
0.827586 0.380952 0
0.827586 0.428571 0
0.827586 0.47619 0
0.827586 0.52381 0
0.827586 0.571429 0
0.827586 0.619048 0
0.827586 0.666667 0
0.827586 0.714286 0
0.827586 0.761905 0
0.827586 0.809524 0
0.827586 0.857143 0
0.827586 0.904762 0
0.827586 0.952381 0
0.827586 1 0
0.873563 0 0
0.873563 0.047619 0
0.873563 0.0952381 0
0.873563 0.142857 0
0.873563 0.190476 0
0.873563 0.238095 0
0.873563 0.285714 0
0.873563 0.333333 0
0.873563 0.380952 0
0.873563 0.428571 0
0.873563 0.47619 0
0.873563 0.52381 0
0.873563 0.571429 0
0.873563 0.619048 0
0.873563 0.666667 0
0.873563 0.714286 0
0.873563 0.761905 0
0.873563 0.809524 0
0.873563 0.857143 0
0.873563 0.904762 0
0.873563 0.952381 0
0.873563 1 0
0.91954 0 0
0.91954 0.047619 0
0.91954 0.0952381 0
0.91954 0.142857 0
0.91954 0.190476 0
0.91954 0.238095 0
0.91954 0.285714 0
0.91954 0.333333 0
0.91954 0.380952 0
0.91954 0.428571 0
0.91954 0.47619 0
0.91954 0.52381 0
0.91954 0.571429 0
0.91954 0.619048 0
0.91954 0.666667 0
0.91954 0.714286 0
0.91954 0.761905 0
0.91954 0.809524 0
0.91954 0.857143 0
0.91954 0.904762 0
0.91954 0.952381 0
0.91954 1 0
0.965517 0 0
0.965517 0.047619 0
0.965517 0.0952381 0
0.965517 0.142857 0
0.965517 0.190476 0
0.965517 0.238095 0
0.965517 0.285714 0
0.965517 0.333333 0
0.965517 0.380952 0
0.965517 0.428571 0
0.965517 0.47619 0
0.965517 0.52381 0
0.965517 0.571429 0
0.965517 0.619048 0
0.965517 0.666667 0
0.965517 0.714286 0
0.965517 0.761905 0
0.965517 0.809524 0
0.965517 0.857143 0
0.965517 0.904762 0
0.965517 0.952381 0
0.965517 1 0
1.01149 0 0
1.01149 0.047619 0
1.01149 0.0952381 0
1.01149 0.142857 0
1.01149 0.190476 0
1.01149 0.238095 0
1.01149 0.285714 0
1.01149 0.333333 0
1.01149 0.380952 0
1.01149 0.428571 0
1.01149 0.47619 0
1.01149 0.52381 0
1.01149 0.571429 0
1.01149 0.619048 0
1.01149 0.666667 0
1.01149 0.714286 0
1.01149 0.761905 0
1.01149 0.809524 0
1.01149 0.857143 0
1.01149 0.904762 0
1.01149 0.952381 0
1.01149 1 0
1.05747 0 0
1.05747 0.047619 0
1.05747 0.0952381 0
1.05747 0.142857 0
1.05747 0.190476 0
1.05747 0.238095 0
1.05747 0.285714 0
1.05747 0.333333 0
1.05747 0.380952 0
1.05747 0.428571 0
1.05747 0.47619 0
1.05747 0.52381 0
1.05747 0.571429 0
1.05747 0.619048 0
1.05747 0.666667 0
1.05747 0.714286 0
1.05747 0.761905 0
1.05747 0.809524 0
1.05747 0.857143 0
1.05747 0.904762 0
1.05747 0.952381 0
1.05747 1 0
1.10345 0 0
1.10345 0.047619 0
1.10345 0.0952381 0
1.10345 0.142857 0
1.10345 0.190476 0
1.10345 0.238095 0
1.10345 0.285714 0
1.10345 0.333333 0
1.10345 0.380952 0
1.10345 0.428571 0
1.10345 0.47619 0
1.10345 0.52381 0
1.10345 0.571429 0
[...]
POINT_DATA 1913
VECTORS velocity[m/s] double
-0 0.209462 0
0 0.209462 0
0 0.209395 0
0 0.180987 0
0 0.150659 0
0 0.121903 0
0 0.0948843 0
0 0.0692642 0
0 0.0446246 0
0 0.0205511 0
0 -0.00335615 0
0 -0.0274978 0
0 -0.0523021 0
0 -0.0782603 0
0 -0.105975 0
0 -0.136222 0
0 -0.170049 0
0 -0.208877 0
0 -0.254212 0
0 -0.302696 0
0 -0.309861 0
-0.872496 0.185235 0
0.872496 0.00163377 0
1.0748 0.185235 0
1.10216 0.208832 0
1.10402 0.184442 0
1.1025 0.153044 0
1.10082 0.123255 0
1.09947 0.0956817 0
1.09852 0.0697512 0
1.09798 0.0449012 0
1.09782 0.0206585 0
1.09804 -0.00340109 0
1.09868 -0.0276903 0
1.0998 -0.0526462 0
1.10149 -0.0787711 0
1.10394 -0.106691 0
1.10739 -0.137245 0
1.11222 -0.171617 0
1.1185 -0.211199 0
1.12154 -0.255023 0
1.08165 -0.286281 0
0.775556 -0.235223 0
-0.695226 0.144679 0
0.695226 0.00129611 0
1.05202 0.144679 0
1.12571 0.189911 0
1.13433 0.178681 0
1.13126 0.151236 0
1.12744 0.12229 0
1.12451 0.0949732 0
1.12252 0.0692548 0
1.12138 0.0446222 0
1.12105 0.0205981 0
1.1215 -0.00323452 0
1.12278 -0.0272707 0
1.12502 -0.0519213 0
1.12845 -0.0776535 0
1.13344 -0.105043 0
1.14058 -0.13483 0
1.15044 -0.167812 0
1.16082 -0.20364 0
1.15173 -0.235309 0
1.03235 -0.234749 0
0.548444 -0.146323 0
-0.556787 0.105545 0
0.556788 0.000944868 0
1.00834 0.105545 0
1.13656 0.16176 0
1.16083 0.164707 0
1.15921 0.14462 0
1.15382 0.118662 0
1.14934 0.0926779 0
1.1463 0.0677842 0
1.14458 0.0438082 0
1.14406 0.0203755 0
1.1447 -0.00287659 0
1.14658 -0.0262925 0
1.14987 -0.0502241 0
1.15489 -0.0750594 0
1.1622 -0.101245 0
1.17243 -0.129227 0
1.18503 -0.158936 0
1.19139 -0.187522 0
1.15119 -0.203065 0
0.946976 -0.176802 0
0.407168 -0.0836866 0
-0.455794 0.0738511 0
0.455795 0.000660511 0
0.954068 0.0738511 0
1.13371 0.132249 0
1.18022 0.146279 0
1.18427 0.134327 0
1.17891 0.112689 0
1.17338 0.088947 0
1.16945 0.0654391 0
1.16721 0.0425161 0
1.16651 0.0200035 0
1.16731 -0.00236149 0
1.16969 -0.0248457 0
1.17385 -0.0477178 0
1.18018 -0.0712562 0
1.18922 -0.095722 0
1.20111 -0.12115 0
1.21263 -0.146442 0
1.2064 -0.166624 0
1.12583 -0.167884 0
0.857072 -0.128065 0
0.326367 -0.0478421 0
-0.385128 0.050491 0
0.385128 0.000451218 0
0.897684 0.050491 0
1.12017 0.105573 0
1.19176 0.126728 0
1.20517 0.122033 0
1.20183 0.105112 0
1.19607 0.084143 0
1.19158 0.0624212 0
1.18894 0.0408514 0
1.1881 0.0195126 0
1.18902 -0.0017293 0
1.19177 -0.0230477 0
1.19657 -0.0446172 0
1.2038 -0.0665942 0
1.21377 -0.0890329 0
1.22553 -0.111531 0
1.23212 -0.132075 0
1.20762 -0.144427 0
1.08738 -0.135475 0
0.779615 -0.0918319 0
0.280175 -0.0286769 0
-0.336814 0.0343601 0
0.336814 0.000306841 0
0.844502 0.0343601 0
1.09974 0.0833418 0
1.1963 0.108182 0
1.2215 0.109202 0
1.22208 0.0967395 0
1.21705 0.0787062 0
1.21241 0.0589793 0
1.20955 0.0389458 0
1.20861 0.0189445 0
1.2096 -0.00101982 0
1.2126 -0.0210241 0
1.21779 -0.0411503 0
1.22546 -0.0614358 0
1.23549 -0.081734 0
1.24537 -0.101246 0
1.24405 -0.117289 0
1.19898 -0.123211 0
1.04525 -0.10808 0
0.718638 -0.0662956 0
0.252487 -0.0183219 0
-0.303936 0.0237126 0
0.303936 0.00021161 0
0.797209 0.0237126 0
1.07576 0.0657032 0
1.19531 0.0917005 0
1.23354 0.0968386 0
1.23949 0.0882433 0
1.23609 0.0730435 0
1.23175 0.0553557 0
1.22886 0.0369306 0
1.22789 0.0183432 0
1.22892 -0.000268605 0
1.23203 -0.018892 0
1.23738 -0.0375258 0
1.24506 -0.0561012 0
1.25433 -0.0742927 0
1.26086 -0.0909787 0
1.24976 -0.103071 0
1.18437 -0.104143 0
1.0049 -0.0859672 0
0.672319 -0.0486097 0
0.234797 -0.0124229 0
-0.281245 0.0168592 0
0.281245 0.000150346 0
0.756667 0.0168592 0
1.05065 0.052112 0
1.19035 0.077625 0
1.24184 0.0855079 0
1.25417 0.0800892 0
1.25317 0.0674707 0
1.24954 0.0517498 0
1.2468 0.0349179 0
1.24586 0.0177473 0
1.2469 0.000494687 0
1.25002 -0.0167494 0
1.25531 -0.0339144 0
1.26263 -0.0508415 0
1.27044 -0.0670539 0
1.27253 -0.081189 0
1.2508 -0.0899859 0
1.16682 -0.0876397 0
0.968833 -0.0685502 0
0.63738 -0.0363373 0
0.222803 -0.00883446 0
-0.265113 0.0124665 0
0.265113 0.000111099 0
0.72263 0.0124665 0
1.02602 0.0417991 0
1.18274 0.06589 0
1.24707 0.0754509 0
1.26635 0.0725495 0
1.26835 0.062199 0
1.26579 0.048304 0
1.26338 0.0329908 0
1.26252 0.0171858 0
1.26355 0.00124664 0
1.26659 -0.0146714 0
1.27166 -0.0304421 0
1.27828 -0.0458328 0
1.28409 -0.0602435 0
1.28103 -0.0721477 0
1.24853 -0.0782912 0
1.14839 -0.0736897 0
0.937731 -0.0549952 0
0.610826 -0.0277216 0
0.214274 -0.00652054 0
-0.253184 0.00960757 0
0.253184 8.557e-05 0
0.694309 0.00960756 0
1.00276 0.0340138 0
1.17351 0.0562399 0
1.24987 0.0667036 0
1.27634 0.0657494 0
1.28177 0.0573475 0
1.28058 0.0451061 0
1.27864 0.0312021 0
1.27791 0.0166761 0
1.27892 0.00196956 0
1.28182 -0.0127099 0
1.28652 -0.0271921 0
1.2922 -0.041184 0
1.29558 -0.053989 0
1.28696 -0.0639828 0
1.24409 -0.0680456 0
1.13034 -0.0620718 0
0.911398 -0.0444937 0
0.590356 -0.0215776 0
0.207978 -0.0049615 0
-0.243991 0.00768974 0
0.243991 6.84551e-05 0
0.670745 0.00768972 0
0.981302 0.0281229 0
1.16341 0.0483578 0
1.25079 0.0591884 0
1.28446 0.059715 0
1.29359 0.0529652 0
1.294 0.0421982 0
1.29267 0.0295782 0
1.29211 0.0162259 0
1.29309 0.00265066 0
1.2958 -0.010897 0
1.30003 -0.0242117 0
1.30456 -0.0369512 0
1.30523 -0.0483448 0
1.29088 -0.0567258 0
1.23832 -0.0591915 0
1.11336 -0.0524844 0
0.889273 -0.0363583 0
0.574313 -0.0171239 0
0.203188 -0.00387766 0
-0.236633 0.00635356 0
0.236633 5.65382e-05 0
0.651016 0.00635354 0
0.961766 0.0236323 0
1.15295 0.0419324 0
1.25028 0.0527758 0
1.29097 0.0544131 0
1.30398 0.0490541 0
1.30619 0.0395895 0
1.30556 0.0281258 0
1.30521 0.0158349 0
1.30617 0.0032812 0
1.30866 -0.00924884 0
1.31233 -0.0215207 0
1.31556 -0.0331512 0
1.31332 -0.0433154 0
1.29326 -0.0503478 0
1.23185 -0.0516104 0
1.09779 -0.044614 0
0.870702 -0.0300385 0
0.561524 -0.0138447 0
0.199444 -0.00310677 0
-0.230553 0.00538617 0
0.230553 4.79151e-05 0
0.634334 0.00538616 0
0.944097 0.0201725 0
1.14248 0.0366875 0
1.2487 0.04732 0
1.29615 0.0497802 0
1.31312 0.0455878 0
1.31726 0.0372678 0
1.31743 0.0268377 0
1.31733 0.0154975 0
1.31827 0.00385576 0
1.32051 -0.00776989 0
1.32356 -0.0191193 0
1.32537 -0.0297747 0
1.32012 -0.0388738 0
1.29448 -0.0447859 0
1.22509 -0.0451589 0
1.08372 -0.0381693 0
0.855067 -0.0251072 0
0.551157 -0.0113958 0
0.196445 -0.00254863 0
-0.225399 0.00466126 0
0.2254 4.14563e-05 0
0.620057 0.00466124 0
0.928152 0.0174733 0
1.13222 0.03239 0
1.24633 0.0426787 0
1.3002 0.0457403 0
1.32115 0.0425248 0
1.32733 0.0352084 0
1.32838 0.0256988 0
1.32858 0.0152053 0
1.3295 0.00437158 0
1.33147 -0.00645647 0
1.33385 -0.0169949 0
1.33416 -0.0267962 0
1.32582 -0.0349752 0
1.29484 -0.0399607 0
1.21835 -0.0396889 0
1.07111 -0.0328945 0
0.841828 -0.0212378 0
0.542615 -0.0095432 0
0.193984 -0.00213846 0
-0.220939 0.00410203 0
0.220939 3.64755e-05 0
0.607687 0.00410201 0
0.91375 0.0153389 0
1.12228 0.0288495 0
1.24337 0.0387227 0
1.3033 0.0422156 0
1.32822 0.0398181 0
1.33651 0.0333812 0
1.33851 0.0246902 0
1.33904 0.0149485 0
1.33995 0.00482796 0
1.34164 -0.00529965 0
1.34331 -0.0151272 0
1.34206 -0.0241815 0
1.33064 -0.0315664 0
1.29458 -0.0357877 0
1.21179 -0.0350596 0
1.05986 -0.0285723 0
0.830537 -0.0181823 0
0.535466 -0.00812506 0
0.19192 -0.00183294 0
-0.217014 0.00365996 0
0.217014 3.25394e-05 0
0.596838 0.00365995 0
0.900705 0.0136276 0
1.11275 0.0259127 0
1.24 0.0353385 0
1.30562 0.0391332 0
1.33443 0.0374204 0
1.3449 0.0317546 0
1.34791 0.0237918 0
1.34881 0.0147179 0
1.34973 0.00522585 0
1.35113 -0.00428748 0
1.35205 -0.0134922 0
1.34919 -0.0218926 0
1.33471 -0.0285917 0
1.29388 -0.0321838 0
1.20552 -0.0311428 0
1.04982 -0.025022 0
0.820827 -0.0157528 0
0.529391 -0.00702719 0
0.19015 -0.00160242 0
-0.213512 0.0033031 0
0.213513 2.93628e-05 0
0.587214 0.00330308 0
0.888844 0.0122362 0
1.10365 0.0234576 0
1.23634 0.0324297 0
1.30727 0.0364272 0
1.3399 0.0352877 0
1.35259 0.0302985 0
1.35668 0.0229847 0
1.35797 0.0145047 0
1.35892 0.00556744 0
1.36002 -0.00340654 0
1.36016 -0.0120644 0
1.35566 -0.0198912 0
1.33818 -0.0259973 0
1.29287 -0.0290718 0
1.19961 -0.0278255 0
1.04088 -0.0220954 0
0.812403 -0.0138064 0
0.524153 -0.00616779 0
0.188603 -0.00142617 0
-0.210352 0.00300955 0
0.210352 2.67502e-05 0
0.57859 0.00300952 0
0.87801 0.011089 0
1.09499 0.0213875 0
1.23248 0.029915 0
1.30837 0.03404 0
1.34472 0.0333803 0
1.35965 0.0289859 0
1.36486 0.0222518 0
1.3666 0.0143017 0
1.36758 0.00585577 0
1.36838 -0.00264303 0
1.36772 -0.0108191 0
1.36155 -0.0181409 0
1.34115 -0.0237329 0
1.29167 -0.0263815 0
1.19408 -0.0250101 0
1.03287 -0.0196721 0
0.805028 -0.0122346 0
0.519576 -0.00548743 0
0.187227 -0.0012895 0
-0.207472 0.00276384 0
0.207473 2.45639e-05 0
0.570789 0.00276382 0
0.868067 0.0101302 0
1.08675 0.0196262 0
1.22849 0.0277271 0
1.30901 0.0319221 0
1.34896 0.0316638 0
1.36615 0.0277931 0
1.37254 0.0215783 0
1.37476 0.0141032 0
1.37579 0.00609454 0
1.37627 -0.00198346 0
1.37479 -0.00973284 0
1.36695 -0.0166079 0
1.34371 -0.0217529 0
1.29034 -0.024051 0
1.18893 -0.0226131 0
1.02569 -0.0176547 0
0.798513 -0.0109542 0
0.515523 -0.00494244 0
0.185982 -0.00118185 0
-0.204828 0.00255485 0
0.204828 2.27046e-05 0
0.563677 0.00255483 0
0.858898 0.00931808 0
1.07893 0.0181136 0
1.22444 0.0258103 0
1.30926 0.0300318 0
1.3527 0.030109 0
1.37216 0.0267001 0
1.37976 0.0209521 0
1.38249 0.0139049 0
1.38359 0.00628778 0
1.38375 -0.00141508 0
1.38143 -0.00878411 0
1.37192 -0.0152622 0
1.34593 -0.020017 0
1.28896 -0.0220262 0
1.18414 -0.0205643 0
1.01922 -0.0159649 0
0.792709 -0.00990151 0
0.511892 -0.00450043 0
0.184841 -0.0010956 0
-0.202383 0.00237444 0
0.202384 2.10998e-05 0
0.557147 0.00237441 0
0.850406 0.00862142 0
1.0715 0.0168022 0
1.22037 0.0241191 0
1.30918 0.0283342 0
1.35599 0.0286912 0
1.37771 0.0256903 0
1.38656 0.0203634 0
1.38984 0.0137037 0
1.39102 0.00643975 0
1.39087 -0.00092613 0
1.38768 -0.00795372 0
1.37651 -0.0140768 0
1.34787 -0.0184898 0
1.28755 -0.0202606 0
1.1797 -0.0188048 0
1.01337 -0.0145397 0
0.787495 -0.00902756 0
0.508605 -0.00413718 0
0.183783 -0.00102518 0
-0.200112 0.00221658 0
0.200112 1.96959e-05 0
0.551116 0.00221655 0
0.842508 0.00801662 0
1.06444 0.0156548 0
1.2163 0.0226164 0
1.30884 0.0268001 0
1.35889 0.0273902 0
1.38285 0.0247502 0
1.39299 0.0198044 0
1.39686 0.0134977 0
1.39814 0.00655471 0
1.39765 -0.000505927 0
1.39359 -0.00722468 0
1.38077 -0.0130287 0
1.34958 -0.0171408 0
1.28614 -0.0187142 0
1.17558 -0.0172856 0
1.00805 -0.0133287 0
0.782773 -0.00829441 0
0.5056 -0.00383452 0
0.182794 -0.00096652 0
-0.197991 0.00207679 0
0.197991 1.84528e-05 0
0.545516 0.00207676 0
0.835133 0.00748571 0
1.05772 0.0146418 0
1.21226 0.0212717 0
1.30827 0.0254055 0
1.36144 0.026189 0
1.38762 0.0238689 0
1.39908 0.0192693 0
1.40356 0.013286 0
1.40495 0.00663687 0
1.40414 -0.000144902 0
1.3992 -0.00658215 0
1.38474 -0.0120975 0
1.3511 -0.0159437 0
1.28476 -0.0173534 0
1.17176 -0.0159661 0
1.00319 -0.0122913 0
0.778467 -0.00767271 0
0.502831 -0.00357869 0
0.181861 -0.000916633 0
-0.196004 0.00195171 0
0.196004 1.73407e-05 0
0.540294 0.00195168 0
0.828224 0.00701496 0
1.05132 0.0137402 0
1.20827 0.0200606 0
1.30751 0.0241305 0
1.36368 0.025074 0
1.39207 0.023038 0
1.40486 0.0187537 0
1.40998 0.0130682 0
1.4115 0.0066903 0
1.41036 0.000165444 0
1.40452 -0.00601327 0
1.38845 -0.011266 0
1.35246 -0.014876 0
1.28342 -0.0161496 0
1.16821 -0.0148128 0
0.998727 -0.0113953 0
0.774515 -0.00713962 0
0.500261 -0.00335929 0
0.180976 -0.000873325 0
-0.194137 0.00183879 0
0.194137 1.63367e-05 0
0.535405 0.00183875 0
0.821731 0.00659377 0
1.04521 0.0129313 0
1.20434 0.0189629 0
1.3066 0.0229589 0
1.36565 0.024034 0
1.3962 0.0222504 0
1.41035 0.0182545 0
1.41614 0.0128447 0
1.4178 0.00671884 0
1.41632 0.000432595 0
1.4096 -0.00550695 0
1.39194 -0.0105194 0
1.35369 -0.0139187 0
1.28213 -0.0150785 0
1.16491 -0.0137978 0
0.994618 -0.0106146 0
0.770865 -0.00667734 0
0.497861 -0.0031684 0
0.180133 -0.000834981 0
-0.192377 0.00173607 0
0.192378 1.54236e-05 0
0.530815 0.00173604 0
0.815613 0.00621393 0
1.03939 0.0122006 0
1.20048 0.0179623 0
1.30556 0.0218771 0
1.36737 0.0230597 0
1.40006 0.0215011 0
1.41557 0.0177694 0
1.42205 0.0126161 0
1.42387 0.00672608 0
1.42206 0.000663109 0
1.41444 -0.0050537 0
1.39522 -0.00984521 0
1.35481 -0.0130556 0
1.28089 -0.0141201 0
1.16184 -0.0128984 0
0.990817 -0.00992825 0
0.767477 -0.00627196 0
0.495609 -0.00299996 0
0.179327 -0.000800416 0
-0.190716 0.00164206 0
0.190717 1.45879e-05 0
0.526491 0.00164203 0
0.809833 0.005869 0
1.03383 0.0115363 0
1.1967 0.0170456 0
1.30442 0.0208741 0
1.36887 0.0221439 0
1.40366 0.0207858 0
1.42055 0.0172971 0
1.42774 0.0123833 0
1.42973 0.00671532 0
1.42758 0.000862694 0
1.41906 -0.00464542 0
1.39832 -0.00923267 0
1.35584 -0.0122729 0
1.27972 -0.0132572 0
1.15897 -0.0120957 0
0.987287 -0.00931957 0
0.764318 -0.00591254 0
0.493485 -0.00284934 0
0.178555 -0.000768756 0
-0.189145 0.00155558 0
0.189146 1.38192e-05 0
0.52241 0.00155554 0
0.804361 0.00555391 0
1.02851 0.010929 0
1.19301 0.0162018 0
1.3032 0.0199406 0
1.37019 0.0212804 0
1.40703 0.0201014 0
1.42529 0.0168366 0
1.43321 0.0121475 0
1.43538 0.00668959 0
1.4329 0.0010363 0
1.42349 -0.00427519 0
1.40126 -0.00867277 0
1.35679 -0.011559 0
1.27859 -0.0124755 0
1.15629 -0.0113741 0
0.983998 -0.00877501 0
0.761361 -0.0055905 0
0.491477 -0.002713 0
0.177813 -0.000739358 0
-0.187657 0.00147569 0
0.187658 1.31091e-05 0
0.51855 0.00147565 0
0.799172 0.00526461 0
1.02342 0.0103712 0
1.1894 0.0154218 0
1.3019 0.0190691 0
1.37132 0.0204641 0
1.41019 0.0194454 0
1.42982 0.0163874 0
1.43848 0.0119099 0
1.44084 0.00665159 0
1.43803 0.0011882 0
1.42774 -0.00393716 0
1.40405 -0.00815785 0
1.35767 -0.0109042 0
1.27753 -0.0117632 0
1.15378 -0.0107209 0
0.980923 -0.00828367 0
0.758583 -0.00529906 0
0.489571 -0.00258818 0
0.177099 -0.00071175 0
-0.186245 0.00140163 0
0.186246 1.24509e-05 0
0.514892 0.00140159 0
0.794241 0.00499784 0
1.01854 0.00985659 0
1.18587 0.0146983 0
1.30056 0.0182532 0
1.37231 0.0196909 0
1.41314 0.0188158 0
1.43414 0.0159494 0
1.44356 0.0116715 0
1.44611 0.00660374 0
1.44297 0.00132205 0
1.43181 -0.00362637 0
1.4067 -0.00768146 0
1.3585 -0.0103002 0
1.27652 -0.0111102 0
1.15143 -0.0101255 0
0.978042 -0.00783671 0
0.755966 -0.00503282 0
0.48776 -0.00247276 0
0.176412 -0.00068558 0
-0.184905 0.00133279 0
0.184905 1.18392e-05 0
0.51142 0.00133276 0
0.78955 0.00475093 0
1.01387 0.00938007 0
1.18244 0.0140251 0
1.29917 0.0174872 0
1.37315 0.0189573 0
1.41591 0.0182109 0
1.43827 0.0155224 0
1.44846 0.0114334 0
1.45121 0.00654818 0
1.44775 0.00144097 0
1.43573 -0.00333863 0
1.40923 -0.00723813 0
1.35928 -0.00973986 0
1.27557 -0.010508 0
1.14922 -0.00957909 0
0.975335 -0.00742696 0
0.753494 -0.0047875 0
0.486035 -0.00236508 0
0.17575 -0.000660589 0
-0.18363 0.00126866 0
0.18363 1.12692e-05 0
0.50812 0.00126862 0
0.785081 0.00452168 0
1.00938 0.00893737 0
1.1791 0.0133967 0
1.29775 0.0167668 0
1.37387 0.0182601 0
1.4185 0.0176294 0
1.44222 0.0151064 0
1.45317 0.0111968 0
1.45614 0.00648673 0
1.45237 0.00154761 0
1.43949 -0.00307042 0
1.41164 -0.00682326 0
1.36003 -0.00921736 0
1.27468 -0.00994946 0
1.14714 -0.00907446 0
0.972787 -0.00704858 0
0.751156 -0.00455967 0
0.484389 -0.00226385 0
0.175113 -0.000636581 0
-0.182416 0.00120878 0
0.182417 1.07371e-05 0
0.504979 0.00120875 0
0.780818 0.00430823 0
1.00508 0.00852491 0
1.17585 0.0128088 0
1.29631 0.0160877 0
1.37448 0.0175968 0
1.42094 0.0170702 0
1.446 0.0147015 0
1.45772 0.0109624 0
1.46091 0.00642096 0
1.45683 0.00164418 0
1.44312 -0.00281879 0
1.41395 -0.00643297 0
1.36073 -0.00872767 0
1.27383 -0.00942871 0
1.14519 -0.00860558 0
0.970384 -0.00669679 0
0.748939 -0.00434657 0
0.482818 -0.00216803 0
0.174499 -0.000613406 0
-0.18126 0.00115279 0
0.18126 1.02395e-05 0
0.501987 0.00115275 0
0.776747 0.004109 0
1.00094 0.0081396 0
1.17268 0.0122574 0
1.29485 0.0154465 0
1.37499 0.0169649 0
1.42323 0.0165321 0
1.44961 0.0143075 0
1.46211 0.0107309 0
1.46552 0.00635215 0
1.46114 0.00173251 0
1.44661 -0.00258132 0
1.41617 -0.00606401 0
1.36141 -0.00826655 0
1.27304 -0.0089407 0
1.14335 -0.00816743 0
0.968115 -0.00636768 0
0.746836 -0.00414596 0
0.481318 -0.00207681 0
0.173907 -0.00059095 0
-0.180157 0.00110034 0
0.180158 9.77347e-06 0
0.499133 0.0011003 0
0.772856 0.00392263 0
0.996965 0.00777879 0
1.1696 0.0117391 0
1.29339 0.01484 0
1.37541 0.0163623 0
1.42537 0.0160142 0
1.45306 0.0139245 0
1.46633 0.0105029 0
1.46998 0.00628136 0
1.4653 0.00181406 0
1.44997 -0.00235598 0
1.4183 -0.00571368 0
1.36206 -0.00783046 0
1.27229 -0.0084812 0
1.14161 -0.00775582 0
0.96597 -0.00605801 0
0.744839 -0.00395602 0
0.479883 -0.00198951 0
0.173336 -0.000569119 0
-0.179104 0.00105113 0
0.179105 9.33626e-06 0
0.496408 0.0010511 0
0.769133 0.00374791 0
0.993142 0.00744014 0
1.16661 0.0112509 0
1.29192 0.0142653 0
1.37575 0.015787 0
1.42739 0.0155154 0
1.45637 0.0135521 0
1.47041 0.0102789 0
1.4743 0.00620935 0
1.46933 0.00189 0
1.45321 -0.00214118 0
1.42034 -0.00537973 0
1.36269 -0.00741639 0
1.27159 -0.00804666 0
1.13997 -0.00736727 0
0.963941 -0.00576512 0
0.74294 -0.00377526 0
0.478512 -0.00190561 0
0.172787 -0.000547838 0
-0.178099 0.0010049 0
0.1781 8.92547e-06 0
0.493805 0.00100487 0
0.765568 0.00358376 0
0.989463 0.00712157 0
1.1637 0.0107902 0
1.29045 0.0137198 0
1.37601 0.0152369 0
1.42929 0.0150346 0
1.45953 0.0131901 0
1.47434 0.0100589 0
1.47847 0.00613669 0
1.47322 0.00196121 0
1.45634 -0.00193563 0
1.42231 -0.00506033 0
1.3633 -0.00702186 0
1.27094 -0.00763411 0
1.13842 -0.00699887 0
0.96202 -0.0054868 0
0.741135 -0.00360246 0
0.477201 -0.00182466 0
0.172258 -0.000527044 0
-0.177137 0.000961396 0
0.177138 8.53891e-06 0
0.491315 0.000961364 0
0.762153 0.00342923 0
0.985921 0.00682121 0
1.16087 0.0103543 0
1.28898 0.0132011 0
1.3762 0.0147102 0
1.43107 0.0145707 0
1.46255 0.012838 0
1.47813 0.00984294 0
1.4825 0.0060637 0
1.47698 0.00202829 0
1.45936 -0.00173838 0
1.4242 -0.004754 0
1.36389 -0.00664479 0
1.27032 -0.00724107 0
1.13696 -0.0066482 0
0.960201 -0.00522123 0
0.739419 -0.00343661 0
0.475949 -0.00174629 0
0.17175 -0.000506683 0
-0.176218 0.000920384 0
0.176219 8.17453e-06 0
0.488933 0.000920355 0
0.758878 0.00328344 0
0.98251 0.00653734 0
1.15812 0.00994098 0
1.28753 0.0127068 0
1.37634 0.0142051 0
1.43274 0.0141225 0
1.46544 0.0124952 0
1.48178 0.00963093 0
1.4864 0.00599048 0
1.48062 0.00209159 0
1.46227 -0.00154872 0
1.42603 -0.00445958 0
1.36447 -0.00628351 0
1.26975 -0.00686546 0
1.13558 -0.00631325 0
0.958478 -0.00496691 0
0.737787 -0.00327688 0
0.474752 -0.00167021 0
0.171261 -0.00048671 0
-0.175337 0.000881655 0
0.175338 7.83044e-06 0
0.486651 0.000881629 0
0.755736 0.00314556 0
0.979224 0.00626838 0
1.15545 0.00954814 0
1.28608 0.0122348 0
1.37642 0.0137197 0
1.43431 0.0136888 0
1.46821 0.0121609 0
1.48529 0.00942245 0
1.49016 0.00591692 0
1.48413 0.00215124 0
1.46508 -0.00136622 0
1.42779 -0.00417621 0
1.36503 -0.00593663 0
1.26922 -0.0065056 0
1.13429 -0.00599238 0
0.956847 -0.00472261 0
0.736236 -0.0031226 0
0.47361 -0.00159618 0
0.170791 -0.000467085 0
-0.174494 0.000845008 0
0.174495 7.50486e-06 0
0.484466 0.000844986 0
0.752721 0.00301484 0
0.976057 0.00601286 0
1.15286 0.00917373 0
1.28465 0.0117827 0
1.37645 0.0132522 0
1.43579 0.0132681 0
1.47085 0.0118343 0
1.48868 0.00921694 0
1.4938 0.00584271 0
1.48753 0.00220716 0
1.46779 -0.00119068 0
1.42949 -0.00390328 0
1.36558 -0.00560312 0
1.26872 -0.00616013 0
1.13306 -0.00568423 0
0.955302 -0.00448733 0
0.734763 -0.00297324 0
0.47252 -0.00152399 0
0.170341 -0.000447778 0
-0.173686 0.000810254 0
0.173687 7.1961e-06 0
0.482371 0.000810237 0
0.749827 0.00289056 0
0.973006 0.00576937 0
1.15034 0.00881581 0
1.28323 0.0113487 0
1.37643 0.0128006 0
1.43717 0.012859 0
1.47338 0.0115143 0
1.49193 0.00901367 0
1.49731 0.00576735 0
1.49081 0.00225906 0
1.47041 -0.00102211 0
1.43113 -0.00364039 0
1.36612 -0.00528217 0
1.26826 -0.00582796 0
1.1319 -0.00538774 0
0.953841 -0.00426028 0
0.733364 -0.00282838 0
0.471481 -0.00145352 0
0.169909 -0.000428762 0
-0.172911 0.000777214 0
0.172912 6.90259e-06 0
0.480362 0.000777202 0
0.747048 0.00277205 0
0.970065 0.00553658 0
1.14789 0.0084725 0
1.28183 0.0109304 0
1.37638 0.012363 0
1.43847 0.01246 0