# vtk DataFile Version 3.0
vtk output
ASCII
DATASET UNSTRUCTURED_GRID
POINTS 1913 double
0.045977 0 0
0.045977 0.0952381 0
0.045977 0.142857 0
0.045977 0.190476 0
0.045977 0.238095 0
0.045977 0.285714 0
0.045977 0.333333 0
0.045977 0.380952 0
0.045977 0.428571 0
0.045977 0.47619 0
0.045977 0.52381 0
0.045977 0.571429 0
0.045977 0.619048 0
0.045977 0.666667 0
0.045977 0.714286 0
0.045977 0.761905 0
0.045977 0.809524 0
0.045977 0.857143 0
0.045977 0.904762 0
0.045977 0.952381 0
0.045977 1 0
0.091954 0 0
0.091954 0.047619 0
0.091954 0.0952381 0
0.091954 0.142857 0
0.091954 0.190476 0
0.091954 0.238095 0
0.091954 0.285714 0
0.091954 0.333333 0
0.091954 0.380952 0
0.091954 0.428571 0
0.091954 0.47619 0
0.091954 0.52381 0
0.091954 0.571429 0
0.091954 0.619048 0
0.091954 0.666667 0
0.091954 0.714286 0
0.091954 0.761905 0
0.091954 0.809524 0
0.091954 0.857143 0
0.091954 0.904762 0
0.091954 0.952381 0
0.091954 1 0
0.137931 0 0
0.137931 0.047619 0
0.137931 0.0952381 0
0.137931 0.142857 0
0.137931 0.190476 0
0.137931 0.238095 0
0.137931 0.285714 0
0.137931 0.333333 0
0.137931 0.380952 0
0.137931 0.428571 0
0.137931 0.47619 0
0.137931 0.52381 0
0.137931 0.571429 0
0.137931 0.619048 0
0.137931 0.666667 0
0.137931 0.714286 0
0.137931 0.761905 0
0.137931 0.809524 0
0.137931 0.857143 0
0.137931 0.904762 0
0.137931 0.952381 0
0.137931 1 0
0.183908 0 0
0.183908 0.047619 0
0.183908 0.0952381 0
0.183908 0.142857 0
0.183908 0.190476 0
0.183908 0.238095 0
0.183908 0.285714 0
0.183908 0.333333 0
0.183908 0.380952 0
0.183908 0.428571 0
0.183908 0.47619 0
0.183908 0.52381 0
0.183908 0.571429 0
0.183908 0.619048 0
0.183908 0.666667 0
0.183908 0.714286 0
0.183908 0.761905 0
0.183908 0.809524 0
0.183908 0.857143 0
0.183908 0.904762 0
0.183908 0.952381 0
0.183908 1 0
0.229885 0 0
0.229885 0.047619 0
0.229885 0.0952381 0
0.229885 0.142857 0
0.229885 0.190476 0
0.229885 0.238095 0
0.229885 0.285714 0
0.229885 0.333333 0
0.229885 0.380952 0
0.229885 0.428571 0
0.229885 0.47619 0
0.229885 0.52381 0
0.229885 0.571429 0
0.229885 0.619048 0
0.229885 0.666667 0
0.229885 0.714286 0
0.229885 0.761905 0
0.229885 0.809524 0
0.229885 0.857143 0
0.229885 0.904762 0
0.229885 0.952381 0
0.229885 1 0
0.275862 0 0
0.275862 0.047619 0
0.275862 0.0952381 0
0.275862 0.142857 0
0.275862 0.190476 0
0.275862 0.238095 0
0.275862 0.285714 0
0.275862 0.333333 0
0.275862 0.380952 0
0.275862 0.428571 0
0.275862 0.47619 0
0.275862 0.52381 0
0.275862 0.571429 0
0.275862 0.619048 0
0.275862 0.666667 0
0.275862 0.714286 0
0.275862 0.761905 0
0.275862 0.809524 0
0.275862 0.857143 0
0.275862 0.904762 0
0.275862 0.952381 0
0.275862 1 0
0.321839 0 0
0.321839 0.047619 0
0.321839 0.0952381 0
0.321839 0.142857 0
0.321839 0.190476 0
0.321839 0.238095 0
0.321839 0.285714 0
0.321839 0.333333 0
0.321839 0.380952 0
0.321839 0.428571 0
0.321839 0.47619 0
0.321839 0.52381 0
0.321839 0.571429 0
0.321839 0.619048 0
0.321839 0.666667 0
0.321839 0.714286 0
0.321839 0.761905 0
0.321839 0.809524 0
0.321839 0.857143 0
0.321839 0.904762 0
0.321839 0.952381 0
0.321839 1 0
0.367816 0 0
0.367816 0.047619 0
0.367816 0.0952381 0
0.367816 0.142857 0
0.367816 0.190476 0
0.367816 0.238095 0
0.367816 0.285714 0
0.367816 0.333333 0
0.367816 0.380952 0
0.367816 0.428571 0
0.367816 0.47619 0
0.367816 0.52381 0
0.367816 0.571429 0
0.367816 0.619048 0
0.367816 0.666667 0
0.367816 0.714286 0
0.367816 0.761905 0
0.367816 0.809524 0
0.367816 0.857143 0
0.367816 0.904762 0
0.367816 0.952381 0
0.367816 1 0
0.413793 0 0
0.413793 0.047619 0
0.413793 0.0952381 0
0.413793 0.142857 0
0.413793 0.190476 0
0.413793 0.238095 0
0.413793 0.285714 0
0.413793 0.333333 0
0.413793 0.380952 0
0.413793 0.428571 0
0.413793 0.47619 0
0.413793 0.52381 0
0.413793 0.571429 0
0.413793 0.619048 0
0.413793 0.666667 0
0.413793 0.714286 0
0.413793 0.761905 0
0.413793 0.809524 0
0.413793 0.857143 0
0.413793 0.904762 0
0.413793 0.952381 0
0.413793 1 0
0.45977 0 0
0.45977 0.047619 0
0.45977 0.0952381 0
0.45977 0.142857 0
0.45977 0.190476 0
0.45977 0.238095 0
0.45977 0.285714 0
0.45977 0.333333 0
0.45977 0.380952 0
0.45977 0.428571 0
0.45977 0.47619 0
0.45977 0.52381 0
0.45977 0.571429 0
0.45977 0.619048 0
0.45977 0.666667 0
0.45977 0.714286 0
0.45977 0.761905 0
0.45977 0.809524 0
0.45977 0.857143 0
0.45977 0.904762 0
0.45977 0.952381 0
0.45977 1 0
0.505747 0 0
0.505747 0.047619 0
0.505747 0.0952381 0
0.505747 0.142857 0
0.505747 0.190476 0
0.505747 0.238095 0
0.505747 0.285714 0
0.505747 0.333333 0
0.505747 0.380952 0
0.505747 0.428571 0
0.505747 0.47619 0
0.505747 0.52381 0
0.505747 0.571429 0
0.505747 0.619048 0
0.505747 0.666667 0
0.505747 0.714286 0
0.505747 0.761905 0
0.505747 0.809524 0
0.505747 0.857143 0
0.505747 0.904762 0
0.505747 0.952381 0
0.505747 1 0
0.551724 0 0
0.551724 0.047619 0
0.551724 0.0952381 0
0.551724 0.142857 0
0.551724 0.190476 0
0.551724 0.238095 0
0.551724 0.285714 0
0.551724 0.333333 0
0.551724 0.380952 0
0.551724 0.428571 0
0.551724 0.47619 0
0.551724 0.52381 0
0.551724 0.571429 0
0.551724 0.619048 0
0.551724 0.666667 0
0.551724 0.714286 0
0.551724 0.761905 0
0.551724 0.809524 0
0.551724 0.857143 0
0.551724 0.904762 0
0.551724 0.952381 0
0.551724 1 0
0.597701 0 0
0.597701 0.047619 0
0.597701 0.0952381 0
0.597701 0.142857 0
0.597701 0.190476 0
0.597701 0.238095 0
0.597701 0.285714 0
0.597701 0.333333 0
0.597701 0.380952 0
0.597701 0.428571 0
0.597701 0.47619 0
0.597701 0.52381 0
0.597701 0.571429 0
0.597701 0.619048 0
0.597701 0.666667 0
0.597701 0.714286 0
0.597701 0.761905 0
0.597701 0.809524 0
0.597701 0.857143 0
0.597701 0.904762 0
0.597701 0.952381 0
0.597701 1 0
0.643678 0 0
0.643678 0.047619 0
0.643678 0.0952381 0
0.643678 0.142857 0
0.643678 0.190476 0
0.643678 0.238095 0
0.643678 0.285714 0
0.643678 0.333333 0
0.643678 0.380952 0
0.643678 0.428571 0
0.643678 0.47619 0
0.643678 0.52381 0
0.643678 0.571429 0
0.643678 0.619048 0
0.643678 0.666667 0
0.643678 0.714286 0
0.643678 0.761905 0
0.643678 0.809524 0
0.643678 0.857143 0
0.643678 0.904762 0
0.643678 0.952381 0
0.643678 1 0
0.689655 0 0
0.689655 0.047619 0
0.689655 0.0952381 0
0.689655 0.142857 0
0.689655 0.190476 0
0.689655 0.238095 0
0.689655 0.285714 0
0.689655 0.333333 0
0.689655 0.380952 0
0.689655 0.428571 0
0.689655 0.47619 0
0.689655 0.52381 0
0.689655 0.571429 0
0.689655 0.619048 0
0.689655 0.666667 0
0.689655 0.714286 0
0.689655 0.761905 0
0.689655 0.809524 0
0.689655 0.857143 0
0.689655 0.904762 0
0.689655 0.952381 0
0.689655 1 0
0.735632 0 0
0.735632 0.047619 0
0.735632 0.0952381 0
0.735632 0.142857 0
0.735632 0.190476 0
0.735632 0.238095 0
0.735632 0.285714 0
0.735632 0.333333 0
0.735632 0.380952 0
0.735632 0.428571 0
0.735632 0.47619 0
0.735632 0.52381 0
0.735632 0.571429 0
0.735632 0.619048 0
0.735632 0.666667 0
0.735632 0.714286 0
0.735632 0.761905 0
0.735632 0.809524 0
0.735632 0.857143 0
0.735632 0.904762 0
0.735632 0.952381 0
0.735632 1 0
0.781609 0 0
0.781609 0.047619 0
0.781609 0.0952381 0
0.781609 0.142857 0
0.781609 0.190476 0
0.781609 0.238095 0
0.781609 0.285714 0
0.781609 0.333333 0
0.781609 0.380952 0
0.781609 0.428571 0
0.781609 0.47619 0
0.781609 0.52381 0
0.781609 0.571429 0
0.781609 0.619048 0
0.781609 0.666667 0
0.781609 0.714286 0
0.781609 0.761905 0
0.781609 0.809524 0
0.781609 0.857143 0
0.781609 0.904762 0
0.781609 0.952381 0
0.781609 1 0
0.827586 0 0
0.827586 0.047619 0
0.827586 0.0952381 0
0.827586 0.142857 0
0.827586 0.190476 0
0.827586 0.238095 0
0.827586 0.285714 0
0.827586 0.333333 0
0.827586 0.380952 0
0.827586 0.428571 0
0.827586 0.47619 0
0.827586 0.52381 0
0.827586 0.571429 0
0.827586 0.619048 0
0.827586 0.666667 0
0.827586 0.714286 0
0.827586 0.761905 0
0.827586 0.809524 0
0.827586 0.857143 0
0.827586 0.904762 0
0.827586 0.952381 0
0.827586 1 0
0.873563 0 0
0.873563 0.047619 0
0.873563 0.0952381 0
0.873563 0.142857 0
0.873563 0.190476 0
0.873563 0.238095 0
0.873563 0.285714 0
0.873563 0.333333 0
0.873563 0.380952 0
0.873563 0.428571 0
0.873563 0.47619 0
0.873563 0.52381 0
0.873563 0.571429 0
0.873563 0.619048 0
0.873563 0.666667 0
0.873563 0.714286 0
0.873563 0.761905 0
0.873563 0.809524 0
0.873563 0.857143 0
0.873563 0.904762 0
0.873563 0.952381 0
0.873563 1 0
0.91954 0 0
0.91954 0.047619 0
0.91954 0.0952381 0
0.91954 0.142857 0
0.91954 0.190476 0
0.91954 0.238095 0
0.91954 0.285714 0
0.91954 0.333333 0
0.91954 0.380952 0
0.91954 0.428571 0
0.91954 0.47619 0
0.91954 0.52381 0
0.91954 0.571429 0
0.91954 0.619048 0
0.91954 0.666667 0
0.91954 0.714286 0
0.91954 0.761905 0
0.91954 0.809524 0
0.91954 0.857143 0
0.91954 0.904762 0
0.91954 0.952381 0
0.91954 1 0
0.965517 0 0
0.965517 0.047619 0
0.965517 0.0952381 0
0.965517 0.142857 0
0.965517 0.190476 0
0.965517 0.238095 0
0.965517 0.285714 0
0.965517 0.333333 0
0.965517 0.380952 0
0.965517 0.428571 0
0.965517 0.47619 0
0.965517 0.52381 0
0.965517 0.571429 0
0.965517 0.619048 0
0.965517 0.666667 0
0.965517 0.714286 0
0.965517 0.761905 0
0.965517 0.809524 0
0.965517 0.857143 0
0.965517 0.904762 0
0.965517 0.952381 0
0.965517 1 0
1.01149 0 0
1.01149 0.047619 0
1.01149 0.0952381 0
1.01149 0.142857 0
1.01149 0.190476 0
1.01149 0.238095 0
1.01149 0.285714 0
1.01149 0.333333 0
1.01149 0.380952 0
1.01149 0.428571 0
1.01149 0.47619 0
1.01149 0.52381 0
1.01149 0.571429 0
1.01149 0.619048 0
1.01149 0.666667 0
1.01149 0.714286 0
1.01149 0.761905 0
1.01149 0.809524 0
1.01149 0.857143 0
1.01149 0.904762 0
1.01149 0.952381 0
1.01149 1 0
1.05747 0 0
1.05747 0.047619 0
1.05747 0.0952381 0
1.05747 0.142857 0
1.05747 0.190476 0
1.05747 0.238095 0
1.05747 0.285714 0
1.05747 0.333333 0
1.05747 0.380952 0
1.05747 0.428571 0
1.05747 0.47619 0
1.05747 0.52381 0
1.05747 0.571429 0
1.05747 0.619048 0
1.05747 0.666667 0
1.05747 0.714286 0
1.05747 0.761905 0
1.05747 0.809524 0
1.05747 0.857143 0
1.05747 0.904762 0
1.05747 0.952381 0
1.05747 1 0
1.10345 0 0
1.10345 0.047619 0
1.10345 0.0952381 0
1.10345 0.142857 0
1.10345 0.190476 0
1.10345 0.238095 0
1.10345 0.285714 0
1.10345 0.333333 0
1.10345 0.380952 0
1.10345 0.428571 0
1.10345 0.47619 0
1.10345 0.52381 0
1.10345 0.571429 0
[...]
POINT_DATA 1913
VECTORS velocity[m/s] double
-0 0.209786 0
0 0.209786 0
0 0.21014 0
0 0.182098 0
0 0.152117 0
0 0.123705 0
0 0.0970319 0
0 0.0717573 0
0 0.0474595 0
0 0.0237183 0
0 0.000126078 0
0 -0.0237272 0
0 -0.0482806 0
0 -0.0740381 0
0 -0.101616 0
0 -0.131808 0
0 -0.165681 0
0 -0.204682 0
0 -0.25036 0
0 -0.299473 0
0 -0.307856 0
-0.870754 0.185423 0
0.870756 0.00163543 0
1.07296 0.185423 0
1.10038 0.209489 0
1.10225 0.185523 0
1.10073 0.154498 0
1.09905 0.125068 0
1.0977 0.0978535 0
1.09675 0.072285 0
1.09621 0.0477957 0
1.09606 0.0239063 0
1.0963 0.000184607 0
1.09697 -0.0237921 0
1.09812 -0.048472 0
1.09987 -0.0743709 0
1.10238 -0.102129 0
1.10592 -0.132604 0
1.11086 -0.166999 0
1.1173 -0.206742 0
1.1206 -0.250971 0
1.08127 -0.283151 0
0.775929 -0.233796 0
-0.693311 0.144771 0
0.693313 0.00129691 0
1.04973 0.144771 0
1.12352 0.190465 0
1.13221 0.179706 0
1.12915 0.152671 0
1.12533 0.124106 0
1.12239 0.0971666 0
1.1204 0.0718318 0
1.11928 0.0475864 0
1.11897 0.0239463 0
1.11946 0.000485932 0
1.1208 -0.0232 0
1.12313 -0.0475345 0
1.12668 -0.0729981 0
1.13181 -0.100182 0
1.13914 -0.129844 0
1.14924 -0.162813 0
1.16001 -0.198816 0
1.15168 -0.231067 0
1.03362 -0.231856 0
0.550201 -0.145431 0
-0.554792 0.105569 0
0.554794 0.000945056 0
1.00562 0.105569 0
1.13392 0.162206 0
1.15832 0.165648 0
1.15674 0.146011 0
1.15135 0.120463 0
1.14686 0.0948834 0
1.14382 0.0704025 0
1.14211 0.0468489 0
1.14162 0.023842 0
1.14233 0.00100984 0
1.14431 -0.0220031 0
1.14773 -0.0455612 0
1.15293 -0.0700669 0
1.16046 -0.0959831 0
1.17098 -0.123781 0
1.18401 -0.153443 0
1.19115 -0.182272 0
1.15245 -0.198665 0
0.950182 -0.174163 0
0.40979 -0.0830979 0
-0.453783 0.0738312 0
0.453785 0.000660317 0
0.950941 0.0738316 0
1.1306 0.132591 0
1.17728 0.147113 0
1.18141 0.13564 0
1.17605 0.114448 0
1.1705 0.091145 0
1.16656 0.0680885 0
1.16433 0.0456336 0
1.16367 0.0236011 0
1.16456 0.00171821 0
1.16706 -0.0202936 0
1.17139 -0.0427167 0
1.17796 -0.0658447 0
1.1873 -0.0899589 0
1.19962 -0.115132 0
1.21185 -0.140359 0
1.20699 -0.160899 0
1.1288 -0.16332 0
0.862262 -0.125594 0
0.329563 -0.0473585 0
-0.383143 0.0504489 0
0.383145 0.00045083 0
0.894213 0.0504493 0
1.11658 0.105813 0
1.18837 0.127429 0
1.20188 0.123228 0
1.19856 0.106789 0
1.19277 0.0863014 0
1.18825 0.0650801 0
1.18561 0.0440368 0
1.18481 0.0232464 0
1.18582 0.00256506 0
1.18871 -0.0181933 0
1.19373 -0.0392181 0
1.20124 -0.060683 0
1.21161 -0.0826693 0
1.22398 -0.104833 0
1.23169 -0.12531 0
1.20933 -0.138171 0
1.09237 -0.130699 0
0.786729 -0.0894068 0
0.283843 -0.0281968 0
-0.334876 0.0343086 0
0.334878 0.000306374 0
0.840764 0.0343091 0
1.09572 0.08348 0
1.19243 0.108722 0
1.21776 0.110231 0
1.21834 0.0982808 0
1.21326 0.0807785 0
1.20857 0.0616131 0
1.20568 0.0421783 0
1.20478 0.02281 0
1.20586 0.00350281 0
1.20902 -0.0158336 0
1.21446 -0.0352972 0
1.22248 -0.0549464 0
1.23302 -0.0746721 0
1.24376 -0.0937639 0
1.24411 -0.109747 0
1.20212 -0.116351 0
1.05251 -0.103009 0
0.727635 -0.0637963 0
0.256623 -0.0178007 0
-0.302054 0.0236552 0
0.302055 0.000211093 0
0.793294 0.0236558 0
1.07135 0.0657325 0
1.19098 0.0920447 0
1.2293 0.0976423 0
1.23525 0.0895821 0
1.23177 0.074967 0
1.22734 0.0579137 0
1.22439 0.0401755 0
1.22343 0.0223237 0
1.22454 0.00448599 0
1.22781 -0.0133392 0
1.23343 -0.0311684 0
1.24153 -0.0489588 0
1.25146 -0.0664367 0
1.2592 -0.0826057 0
1.25049 -0.0946515 0
1.18924 -0.0965862 0
1.01466 -0.0804938 0
0.683231 -0.045925 0
0.239442 -0.0118343 0
-0.279426 0.0167908 0
0.279426 0.000149734 0
0.752673 0.0167916 0
1.04595 0.0520167 0
1.18558 0.077728 0
1.23709 0.0860145 0
1.24936 0.0811405 0
1.24824 0.0691634 0
1.24447 0.0541625 0
1.24163 0.0381235 0
1.24066 0.0218118 0
1.24175 0.00547283 0
1.24503 -0.010818 0
1.25062 -0.0270099 0
1.25841 -0.0429765 0
1.26707 -0.0583114 0
1.27083 -0.0718199 0
1.25236 -0.0805814 0
1.17371 -0.0792763 0
0.981284 -0.0625504 0
0.650321 -0.0333634 0
0.228021 -0.00815271 0
-0.263366 0.0123778 0
0.263366 0.000110309 0
0.718668 0.0123788 0
1.02113 0.0415546 0
1.17758 0.0656943 0
1.2418 0.0755712 0
1.26093 0.0732076 0
1.26273 0.0635557 0
1.25996 0.0504797 0
1.25739 0.0360853 0
1.25644 0.0212857 0
1.25749 0.00642537 0
1.26067 -0.00835701 0
1.26604 -0.0229573 0
1.27322 -0.0371832 0
1.28012 -0.0505279 0
1.2793 -0.0616795 0
1.25111 -0.0677908 0
1.15757 -0.0643988 0
0.953109 -0.0483376 0
0.625985 -0.02436 0
0.220155 -0.00571607 0
-0.251529 0.00948853 0
0.251528 8.45122e-05 0
0.690503 0.00948969 0
0.997828 0.0335882 0
1.16805 0.0556744 0
1.24408 0.0663283 0
1.27026 0.0658838 0
1.27536 0.0582367 0
1.27387 0.0469274 0
1.27168 0.0340908 0
1.27079 0.0207434 0
1.27177 0.00730908 0
1.27477 -0.00602264 0
1.27978 -0.0191065 0
1.28611 -0.0316995 0
1.29089 -0.0432236 0
1.2852 -0.0523202 0
1.24784 -0.0563413 0
1.14206 -0.0517312 0
0.929964 -0.0370497 0
0.60799 -0.0177374 0
0.214641 -0.00400304 0
-0.242457 0.00753155 0
0.242455 6.70507e-05 0
0.667241 0.0075329 0
0.976509 0.0274786 0
1.15777 0.0473378 0
1.24452 0.0581881 0
1.27764 0.0591702 0
1.28628 0.0532286 0
1.28627 0.0435218 0
1.28457 0.0321428 0
1.28377 0.0201715 0
1.28464 0.00809261 0
1.28741 -0.0038638 0
1.29194 -0.0155208 0
1.29724 -0.026597 0
1.29968 -0.0364691 0
1.28909 -0.043789 0
1.24339 -0.0461882 0
1.1279 -0.0409839 0
0.911323 -0.0280153 0
0.594735 -0.0127291 0
0.210782 -0.00273701 0
-0.235258 0.00614549 0
0.235254 5.46918e-05 0
0.647988 0.00614717 0
0.95734 0.022721 0
1.1473 0.0403557 0
1.24358 0.0509982 0
1.28339 0.0530083 0
1.29566 0.0485072 0
1.29726 0.0402467 0
1.29614 0.0302246 0
1.29543 0.0195486 0
1.29619 0.0087479 0
1.29867 -0.00191532 0
1.30264 -0.0122389 0
1.30678 -0.0219131 0
1.30675 -0.0302916 0
1.29141 -0.0360815 0
1.23838 -0.0372389 0
1.11538 -0.0318714 0
0.89657 -0.0207161 0
0.585094 -0.00884526 0
0.208146 -0.00176425 0
-0.229385 0.00510829 0
0.229379 4.54502e-05 0
0.631991 0.00511057 0
0.940318 0.0189239 0
1.13703 0.0344241 0
1.24164 0.0445845 0
1.28774 0.047307 0
1.30364 0.0440202 0
1.30694 0.0370662 0
1.30645 0.0283076 0
1.30587 0.0188493 0
1.30649 0.0092504 0
1.30865 -0.000201134 0
1.31199 -0.00928241 0
1.31488 -0.0176631 0
1.31235 -0.0246928 0
1.29254 -0.029168 0
1.2332 -0.0293875 0
1.10462 -0.0241459 0
0.885115 -0.0147728 0
0.578263 -0.00577805 0
0.206449 -0.000997835 0
-0.224505 0.00427699 0
0.224497 3.80489e-05 0
0.618659 0.00428032 0
0.925358 0.0157815 0
1.12722 0.0292688 0
1.23902 0.0387668 0
1.29092 0.0419579 0
1.31036 0.0396989 0
1.3154 0.0339324 0
1.31559 0.026356 0
1.31514 0.0180463 0
1.31563 0.00957916 0
1.31742 0.00126332 0
1.32009 -0.00666044 0
1.32167 -0.0138477 0
1.31668 -0.0196601 0
1.29276 -0.0230084 0
1.22814 -0.0225337 0
1.09557 -0.0176088 0
0.876437 -0.00991912 0
0.573654 -0.00333765 0
0.205492 -0.000389144 0
-0.22042 0.00355641 0
0.220409 3.16386e-05 0
0.60756 0.00356127 0
0.912341 0.0130589 0
1.11806 0.0246528 0
1.23594 0.0333734 0
1.2931 0.0368485 0
1.31594 0.0354682 0
1.32272 0.0307921 0
1.32362 0.0243318 0
1.32332 0.0171133 0
1.32366 0.0097173 0
1.32508 0.00246963 0
1.32703 -0.00437326 0
1.32729 -0.0104586 0
1.31992 -0.0151738 0
1.2923 -0.0175618 0
1.2234 -0.0165921 0
1.08815 -0.0121097 0
0.870089 -0.00597419 0
0.570814 -0.00140831 0
0.205123 8.85569e-05 0
-0.217026 0.00288702 0
0.21701 2.56878e-05 0
0.598396 0.00289371 0
0.901153 0.0105912 0
1.10964 0.0203931 0
1.23259 0.0282615 0
1.29444 0.0318801 0
1.32046 0.0312594 0
1.32897 0.0275961 0
1.33059 0.0222001 0
1.33047 0.0160276 0
1.33066 0.00965314 0
1.33169 0.0034156 0
1.33291 -0.00241472 0
1.33185 -0.00748215 0
1.32223 -0.0112124 0
1.29137 -0.0127913 0
1.21908 -0.011495 0
1.08224 -0.0075386 0
0.865687 -0.00281619 0
0.569376 8.22767e-05 0
0.205215 0.000450518 0
-0.214272 0.00224085 0
0.21425 1.99456e-05 0
0.59097 0.00224929 0
0.891695 0.00828752 0
1.10205 0.01638 0
1.2291 0.0233433 0
1.29505 0.0269915 0
1.324 0.0270293 0
1.33418 0.0243125 0
1.33656 0.0199385 0
1.33663 0.014776 0
1.33669 0.00938246 0
1.33733 0.00410515 0
1.33781 -0.000774275 0
1.33545 -0.0049031 0
1.32376 -0.00775615 0
1.29013 -0.00866822 0
1.21526 -0.00719171 0
1.07768 -0.00381587 0
0.862896 -0.00035944 0
0.569027 0.00118425 0
0.205657 0.000707281 0
-0.212137 0.00161724 0
0.212106 1.44044e-05 0
0.585146 0.00162696 0
0.883887 0.00612798 0
1.09533 0.012588 0
1.22559 0.0186052 0
1.29502 0.0221801 0
1.32663 0.0227789 0
1.33841 0.0209417 0
1.34155 0.0175472 0
1.34184 0.0133611 0
1.3418 0.00891154 0
1.34204 0.0045486 0
1.34181 0.000561213 0
1.33822 -0.00270737 0
1.32465 -0.00479045 0
1.28871 -0.00517215 0
1.21201 -0.00364447 0
1.07435 -0.000879334 0
0.861412 0.00146437 0
0.569495 0.00193986 0
0.206347 0.000868843 0
-0.210599 0.00103483 0
0.210559 9.22833e-06 0
0.580807 0.00104504 0
0.877657 0.00414759 0
1.08953 0.00906748 0
1.22214 0.0141103 0
1.29444 0.0175108 0
1.32841 0.018564 0
1.3417 0.0175262 0
1.3456 0.0150571 0
1.34615 0.011806 0
1.34601 0.00825974 0
1.3459 0.00476307 0
1.34497 0.0016065 0
1.34023 -0.000883517 0
1.32502 -0.0023061 0
1.28724 -0.00228902 0
1.20935 -0.000821119 0
1.0721 0.00132803 0
0.86096 0.00272021 0
0.570536 0.00239192 0
0.207194 0.000946795 0
-0.209619 0.000520671 0
0.209569 4.65699e-06 0
0.577818 0.000530446 0
0.872913 0.00240955 0
1.08467 0.00591573 0
1.21887 0.00997789 0
1.29343 0.013105 0
1.32942 0.0144914 0
1.34409 0.0141506 0
1.34874 0.0125309 0
1.34958 0.0101563 0
1.3494 0.00746022 0
1.34895 0.00477266 0
1.34738 0.00237795 0
1.34161 0.000578097 0
1.32501 -0.000296393 0
1.28583 -4.90489e-06 0
1.20728 0.00131399 0
1.07076 0.0028688 0
0.861285 0.00347843 0
0.571939 0.00258756 0
0.208115 0.000954891 0
-0.209131 9.93383e-05 0
0.209072 9.08774e-07 0
0.576011 0.000107869 0
0.869535 0.00097583 0
1.08075 0.00323821 0
1.21585 0.00634736 0
1.2921 0.00911272 0
1.32975 0.0106995 0
1.34566 0.0109289 0
1.35104 0.0100558 0
1.35219 0.00847559 0
1.352 0.00655789 0
1.35127 0.00460785 0
1.34912 0.00289463 0
1.34246 0.00168846 0
1.32474 0.00124859 0
1.28457 0.00170189 0
1.20578 0.00280871 0
1.07018 0.00381811 0
0.862152 0.003818 0
0.573522 0.00257818 0
0.209044 0.000908539 0
-0.209047 -0.000214745 0
0.20898 -1.88769e-06 0
0.57518 -0.000208012 0
0.867358 -0.000115817 0
1.07776 0.00111178 0
1.21319 0.00333676 0
1.29058 0.00567474 0
1.32954 0.00732803 0
1.34651 0.00798338 0
1.35257 0.00772917 0
1.35404 0.00683653 0
1.35389 0.00560467 0
1.35293 0.00430407 0
1.35029 0.00317976 0
1.3429 0.00246425 0
1.32431 0.00234855 0
1.2835 0.00286817 0
1.20482 0.00372868 0
1.07019 0.00426562 0
0.863356 0.00382518 0
0.575142 0.00241701 0
0.209929 0.000823679 0
-0.209264 -0.00042044 0
0.20919 -3.7215e-06 0
0.575098 -0.000415729 0
0.86618 -0.000863027 0
1.07562 -0.000438278 0
1.21094 0.00101126 0
1.28899 0.00288941 0
1.32891 0.00448864 0
1.34676 0.00541996 0
1.35344 0.00564078 0
1.35524 0.00530964 0
1.35515 0.00465311 0
1.35403 0.00389947 0
1.35099 0.00326191 0
1.34301 0.0029316 0
1.32381 0.00303802 0
1.28268 0.00354982 0
1.20431 0.00415806 0
1.07062 0.00431246 0
0.864723 0.00358862 0
0.576687 0.00215552 0
0.210731 0.000715482 0
-0.209677 -0.000528715 0
0.209599 -4.68935e-06 0
0.575538 -0.000525943 0
0.865777 -0.00129784 0
1.07423 -0.00144336 0
1.20913 -0.000631044 0
1.28745 0.000792032 0
1.32802 0.00224244 0
1.34655 0.00330919 0
1.35377 0.00385788 0
1.35588 0.00395255 0
1.35588 0.00375004 0
1.35465 0.00343218 0
1.35132 0.00317513 0
1.34292 0.00312785 0
1.32333 0.00336787 0
1.2821 0.00382104 0
1.20416 0.00419516 0
1.07132 0.00406441 0
0.866113 0.00319312 0
0.578084 0.00183975 0
0.211428 0.000597224 0
-0.210194 -0.000558716 0
0.210113 -4.96076e-06 0
0.57629 -0.00055758 0
0.865925 -0.00147699 0
1.07345 -0.00198116 0
1.20777 -0.00165467 0
1.28606 -0.000648135 0
1.327 0.000592137 0
1.34603 0.00167597 0
1.35368 0.00241564 0
1.35608 0.00280264 0
1.3562 0.00293165 0
1.3549 0.00293763 0
1.35137 0.00295763 0
1.34269 0.00310047 0
1.32289 0.00340278 0
1.28174 0.00376894 0
1.2043 0.00394437 0
1.07217 0.00362339 0
0.867427 0.00271361 0
0.579291 0.00150763 0
0.212012 0.000479531 0
-0.210739 -0.000532967 0
0.210657 -4.73559e-06 0
0.577185 -0.000533054 0
0.866419 -0.0014686 0
1.07314 -0.00215649 0
1.2068 -0.0021685 0
1.28487 -0.00151566 0
1.32596 -0.00051248 0
1.34532 0.000500448 0
1.35332 0.00131547 0
1.35596 0.00187453 0
1.3562 0.00222099 0
1.35489 0.00244619 0
1.35124 0.00264929 0
1.34241 0.00290335 0
1.32255 0.00321545 0
1.28158 0.00348529 0
1.20461 0.00350672 0
1.07306 0.00307966 0
0.868598 0.00221083 0
0.58029 0.00118758 0
0.212481 0.000370066 0
-0.211259 -0.000473181 0
0.211178 -4.20673e-06 0
0.578095 -0.000474061 0
0.86709 -0.00133981 0
1.07316 -0.00208058 0
1.20618 -0.00230184 0
1.2839 -0.00192774 0
1.32499 -0.00115914 0
1.34454 -0.000272556 0
1.35278 0.000529921 0
1.35564 0.00116187 0
1.35599 0.0016279 0
1.3547 0.00198175 0
1.351 0.0022886 0
1.34211 0.00259179 0
1.32229 0.00287918 0
1.28157 0.00305753 0
1.20503 0.00297147 0
1.0739 0.00250629 0
0.869592 0.00172939 0
0.581085 0.000898461 0
0.212845 0.000273627 0
-0.211722 -0.000397484 0
0.211641 -3.53538e-06 0
0.578938 -0.000398784 0
0.867812 -0.00114801 0
1.07338 -0.00185453 0
1.20582 -0.00218224 0
1.28317 -0.00201136 0
1.32414 -0.00145375 0
1.34377 -0.000719401 0
1.35218 1.17952e-05 0
1.35519 0.000642469 0
1.35565 0.00115094 0
1.35441 0.00156103 0
1.35071 0.00190967 0
1.34184 0.00221725 0
1.32213 0.00246094 0
1.28166 0.00256145 0
1.20549 0.00241036 0
1.07466 0.00195664 0
0.8704 0.00129806 0
0.581695 0.000650647 0
0.213115 0.000192529 0
-0.212112 -0.000319179 0
0.212032 -2.84003e-06 0
0.579668 -0.000320611 0
0.8685 -0.00093648 0
1.0737 -0.00155933 0
1.20567 -0.00191951 0
1.28264 -0.00188446 0
1.32343 -0.00150251 0
1.34307 -0.000923059 0
1.35158 -0.000295438 0
1.35471 0.000284726 0
1.35526 0.000780475 0
1.35408 0.00119384 0
1.35042 0.0015401 0
1.34161 0.00182323 0
1.32204 0.00201624 0
1.28181 0.00205654 0
1.20593 0.00187525 0
1.0753 0.00146484 0
0.871031 0.000931837 0
0.582143 0.000447689 0
0.213307 0.000127158 0
-0.212427 -0.000246747 0
0.212349 -2.1963e-06 0
0.580268 -0.000248122 0
0.869108 -0.000733896 0
1.07406 -0.00125243 0
1.20564 -0.00159773 0
1.28227 -0.00164405 0
1.32288 -0.00139881 0
1.34247 -0.000961332 0
1.35102 -0.000448487 0
1.35424 5.37838e-05 0
1.35487 0.000502011 0
1.35375 0.000884009 0
1.35015 0.00119983 0
1.34143 0.0014429 0
1.322 0.00158648 0
1.28199 0.00158449 0
1.20633 0.00139877 0
1.07582 0.00104844 0
0.871505 0.000635001 0
0.582458 0.000288259 0
0.213435 7.65574e-05 0
-0.212672 -0.000184616 0
0.212595 -1.64377e-06 0
0.580743 -0.000185825 0
0.869615 -0.000556247 0
1.0744 -0.000969319 0
1.20569 -0.00127395 0
1.28204 -0.00136149 0
1.32246 -0.00121625 0
1.34198 -0.00089938 0
1.35054 -0.00049772 0
1.35381 -8.36219e-05 0
1.3545 0.000299188 0
1.35345 0.000630628 0
1.34992 0.000901222 0
1.3413 0.00109857 0
1.32201 0.00119879 0
1.28217 0.00117037 0
1.20668 0.00099718 0
1.07623 0.000712175 0
0.871845 0.000404395 0
0.582668 0.000167973 0
0.213515 3.89653e-05 0
-0.212857 -0.000134239 0
0.212781 -1.19556e-06 0
0.581107 -0.00013524 0
0.870019 -0.00040998 0
1.0747 -0.000727787 0
1.20578 -0.000981568 0
1.28191 -0.00108336 0
1.32216 -0.00100699 0
1.3416 -0.000786581 0
1.35015 -0.000483679 0
1.35344 -0.000156128 0
1.35419 0.000155996 0
1.3532 0.000429511 0
1.34974 0.000649965 0
1.34121 0.000802621 0
1.32204 0.000867701 0
1.28235 0.000825455 0
1.20696 0.000674289 0
1.07653 0.000452064 0
0.872079 0.000232433 0
0.582798 8.09075e-05 0
0.213558 1.22546e-05 0
-0.212994 -9.51701e-05 0
0.212919 -8.47822e-07 0
0.581378 -9.59605e-05 0
0.870332 -0.00029524 0
1.07495 -0.000533143 0
1.20588 -0.000735898 0
1.28184 -0.000835702 0
1.32196 -0.000803886 0
1.34131 -0.000656807 0
1.34984 -0.000436207 0
1.35315 -0.000186408 0
1.35393 5.81687e-05 0
1.35299 0.000274513 0
1.3496 0.000446504 0
1.34115 0.000559432 0
1.32209 0.000597876 0
1.2825 0.000550917 0
1.20718 0.000425577 0
1.07675 0.000259027 0
0.87223 0.000109508 0
0.58287 2.07247e-05 0
0.213575 -5.74842e-06 0
-0.213093 -6.5948e-05 0
0.213019 -5.87634e-07 0
0.581576 -6.65501e-05 0
0.870567 -0.000208632 0
1.07515 -0.00038303 0
1.20598 -0.00054008 0
1.28182 -0.000629466 0
1.32182 -0.000624501 0
1.34111 -0.000530762 0
1.3496 -0.000375381 0
1.35292 -0.00019113 0
1.35373 -6.16367e-06 0
1.35283 0.00015864 0
1.34949 0.000287657 0
1.34112 0.000367596 0
1.32214 0.000387077 0
1.28262 0.000341359 0
1.20734 0.000241785 0
1.0769 0.000121761 0
0.872321 2.5697e-05 0
0.582901 -1.85889e-05 0
0.213575 -1.70577e-05 0
-0.213164 -4.47283e-05 0
0.213091 -3.98644e-07 0
0.581718 -4.51745e-05 0
0.87074 -0.000145253 0
1.0753 -0.000271201 0
1.20608 -0.000390159 0
1.28182 -0.000465878 0
1.32173 -0.000475671 0
1.34096 -0.000419203 0
1.34943 -0.000313378 0
1.35274 -0.000181715 0
1.35357 -4.63658e-05 0
1.35271 7.48714e-05 0
1.34942 0.000168096 0
1.3411 0.000222105 0
1.32219 0.00022894 0
1.28273 0.000187876 0
1.20746 0.000111701 0
1.07699 2.87366e-05 0
0.872369 -2.81655e-05 0
0.582904 -4.23084e-05 0
0.213563 -2.34162e-05 0
-0.213215 -2.9681e-05 0
0.213141 -2.64595e-07 0
0.58182 -3.00049e-05 0
0.870867 -9.99911e-05 0
1.07542 -0.000190114 0
1.20615 -0.000278875 0
1.28183 -0.000340739 0
1.32168 -0.000357529 0
1.34086 -0.000326128 0
1.34931 -0.000256615 0
1.35262 -0.000165451 0
1.35346 -6.95199e-05 0
1.35262 1.67002e-05 0
1.34938 8.15715e-05 0
1.3411 0.000116142 0
1.32223 0.000115176 0
1.2828 8.03175e-05 0
1.20755 2.40548e-05 0
1.07705 -3.05878e-05 0
0.872388 -5.99423e-05 0
0.582891 -5.47996e-05 0
0.213546 -2.62536e-05 0
-0.21325 -1.91988e-05 0
0.213178 -1.71198e-07 0
0.581892 -1.94311e-05 0
0.870959 -6.82448e-05 0
1.07551 -0.000132483 0
1.20622 -0.000198144 0
1.28185 -0.000247522 0
1.32166 -0.000266641 0
1.3408 -0.000251455 0
1.34923 -0.00020769 0
1.35253 -0.000146627 0
1.35338 -8.08061e-05 0
1.35257 -2.15701e-05 0
1.34935 2.17825e-05 0
1.34111 4.24147e-05 0
1.32227 3.71308e-05 0
1.28286 8.79369e-06 0
1.20761 -3.13497e-05 0
1.07709 -6.51684e-05 0
0.872388 -7.60115e-05 0
0.582868 -5.95092e-05 0
0.213525 -2.66915e-05 0
-0.213276 -1.19777e-05 0
0.213203 -1.0685e-07 0
0.581944 -1.21436e-05 0
0.871026 -4.62229e-05 0
1.07558 -9.20437e-05 0
1.20627 -0.000140458 0
1.28188 -0.000179307 0
1.32165 -0.000198154 0
1.34077 -0.000193004 0
1.34917 -0.000166928 0
1.35247 -0.000127528 0
1.35333 -8.39168e-05 0
1.35253 -4.4712e-05 0
1.34933 -1.70653e-05 0
1.34112 -5.99286e-06 0
1.3223 -1.32357e-05 0
1.28291 -3.54779e-05 0
1.20764 -6.31083e-05 0
1.0771 -8.22054e-05 0
0.872377 -8.13158e-05 0
0.582841 -5.90495e-05 0
0.213504 -2.55748e-05 0
-0.213294 -7.01915e-06 0
0.213222 -6.26619e-08 0
0.581982 -7.13805e-06 0
0.871075 -3.0991e-05 0
1.07563 -6.37981e-05 0
1.20631 -9.95199e-05 0
1.2819 -0.000129833 0
1.32165 -0.000147094 0
1.34074 -0.000147806 0
1.34914 -0.000133488 0
1.35244 -0.000109196 0
1.3533 -8.14346e-05 0
1.35251 -5.65844e-05 0
1.34933 -3.99719e-05 0
1.34113 -3.51415e-05 0
1.32233 -4.28524e-05 0
1.28294 -5.98044e-05 0
1.20767 -7.80876e-05 0
1.07711 -8.72316e-05 0
0.87236 -7.95355e-05 0
0.582814 -5.53257e-05 0
0.213484 -2.35151e-05 0
-0.213308 -3.59247e-06 0
0.213236 -3.21272e-08 0
0.58201 -3.67872e-06 0
0.871111 -2.03846e-05 0
1.07567 -4.39754e-05 0
1.20635 -7.03962e-05 0
1.28192 -9.39307e-05 0
1.32165 -0.000109045 0
1.34074 -0.000112874 0
1.34912 -0.000106071 0
1.35241 -9.1969e-05 0
1.35328 -7.51422e-05 0
1.3525 -6.02144e-05 0
1.34933 -5.1045e-05 0
1.34114 -5.00483e-05 0
1.32235 -5.73632e-05 0
1.28296 -6.99669e-05 0
1.20768 -8.15346e-05 0
1.0771 -8.43327e-05 0
0.872341 -7.3309e-05 0
0.582787 -4.96744e-05 0
0.213466 -2.09371e-05 0
-0.213318 -1.18358e-06 0
0.213246 -1.06656e-08 0
0.58203 -1.24735e-06 0
0.871138 -1.28685e-05 0
1.0757 -2.98505e-05 0
1.20637 -4.94144e-05 0
1.28194 -6.75968e-05 0
1.32166 -8.04067e-05 0
1.34073 -8.55856e-05 0
1.34911 -8.33328e-05 0
1.3524 -7.58293e-05 0
1.35327 -6.62588e-05 0
1.35249 -5.79133e-05 0
1.34933 -5.35252e-05 0
1.34115 -5.46805e-05 0
1.32237 -6.11617e-05 0
1.28298 -7.03483e-05 0
1.20769 -7.73037e-05 0
1.0771 -7.64119e-05 0
0.872322 -6.44534e-05 0
0.582764 -4.29931e-05 0
0.21345 -1.81213e-05 0
-0.213326 5.5676e-07 0
0.213253 4.83545e-09 0
0.582046 5.08465e-07 0
0.871159 -7.39125e-06 0
1.07573 -1.95246e-05 0
1.2064 -3.39496e-05 0
1.28196 -4.78753e-05 0
1.32167 -5.8414e-05 0