# vtk DataFile Version 3.0
vtk output
ASCII
DATASET UNSTRUCTURED_GRID
POINTS 1913 double
0.045977 0 0
0.045977 0.0952381 0
0.045977 0.142857 0
0.045977 0.190476 0
0.045977 0.238095 0
0.045977 0.285714 0
0.045977 0.333333 0
0.045977 0.380952 0
0.045977 0.428571 0
0.045977 0.47619 0
0.045977 0.52381 0
0.045977 0.571429 0
0.045977 0.619048 0
0.045977 0.666667 0
0.045977 0.714286 0
0.045977 0.761905 0
0.045977 0.809524 0
0.045977 0.857143 0
0.045977 0.904762 0
0.045977 0.952381 0
0.045977 1 0
0.091954 0 0
0.091954 0.047619 0
0.091954 0.0952381 0
0.091954 0.142857 0
0.091954 0.190476 0
0.091954 0.238095 0
0.091954 0.285714 0
0.091954 0.333333 0
0.091954 0.380952 0
0.091954 0.428571 0
0.091954 0.47619 0
0.091954 0.52381 0
0.091954 0.571429 0
0.091954 0.619048 0
0.091954 0.666667 0
0.091954 0.714286 0
0.091954 0.761905 0
0.091954 0.809524 0
0.091954 0.857143 0
0.091954 0.904762 0
0.091954 0.952381 0
0.091954 1 0
0.137931 0 0
0.137931 0.047619 0
0.137931 0.0952381 0
0.137931 0.142857 0
0.137931 0.190476 0
0.137931 0.238095 0
0.137931 0.285714 0
0.137931 0.333333 0
0.137931 0.380952 0
0.137931 0.428571 0
0.137931 0.47619 0
0.137931 0.52381 0
0.137931 0.571429 0
0.137931 0.619048 0
0.137931 0.666667 0
0.137931 0.714286 0
0.137931 0.761905 0
0.137931 0.809524 0
0.137931 0.857143 0
0.137931 0.904762 0
0.137931 0.952381 0
0.137931 1 0
0.183908 0 0
0.183908 0.047619 0
0.183908 0.0952381 0
0.183908 0.142857 0
0.183908 0.190476 0
0.183908 0.238095 0
0.183908 0.285714 0
0.183908 0.333333 0
0.183908 0.380952 0
0.183908 0.428571 0
0.183908 0.47619 0
0.183908 0.52381 0
0.183908 0.571429 0
0.183908 0.619048 0
0.183908 0.666667 0
0.183908 0.714286 0
0.183908 0.761905 0
0.183908 0.809524 0
0.183908 0.857143 0
0.183908 0.904762 0
0.183908 0.952381 0
0.183908 1 0
0.229885 0 0
0.229885 0.047619 0
0.229885 0.0952381 0
0.229885 0.142857 0
0.229885 0.190476 0
0.229885 0.238095 0
0.229885 0.285714 0
0.229885 0.333333 0
0.229885 0.380952 0
0.229885 0.428571 0
0.229885 0.47619 0
0.229885 0.52381 0
0.229885 0.571429 0
0.229885 0.619048 0
0.229885 0.666667 0
0.229885 0.714286 0
0.229885 0.761905 0
0.229885 0.809524 0
0.229885 0.857143 0
0.229885 0.904762 0
0.229885 0.952381 0
0.229885 1 0
0.275862 0 0
0.275862 0.047619 0
0.275862 0.0952381 0
0.275862 0.142857 0
0.275862 0.190476 0
0.275862 0.238095 0
0.275862 0.285714 0
0.275862 0.333333 0
0.275862 0.380952 0
0.275862 0.428571 0
0.275862 0.47619 0
0.275862 0.52381 0
0.275862 0.571429 0
0.275862 0.619048 0
0.275862 0.666667 0
0.275862 0.714286 0
0.275862 0.761905 0
0.275862 0.809524 0
0.275862 0.857143 0
0.275862 0.904762 0
0.275862 0.952381 0
0.275862 1 0
0.321839 0 0
0.321839 0.047619 0
0.321839 0.0952381 0
0.321839 0.142857 0
0.321839 0.190476 0
0.321839 0.238095 0
0.321839 0.285714 0
0.321839 0.333333 0
0.321839 0.380952 0
0.321839 0.428571 0
0.321839 0.47619 0
0.321839 0.52381 0
0.321839 0.571429 0
0.321839 0.619048 0
0.321839 0.666667 0
0.321839 0.714286 0
0.321839 0.761905 0
0.321839 0.809524 0
0.321839 0.857143 0
0.321839 0.904762 0
0.321839 0.952381 0
0.321839 1 0
0.367816 0 0
0.367816 0.047619 0
0.367816 0.0952381 0
0.367816 0.142857 0
0.367816 0.190476 0
0.367816 0.238095 0
0.367816 0.285714 0
0.367816 0.333333 0
0.367816 0.380952 0
0.367816 0.428571 0
0.367816 0.47619 0
0.367816 0.52381 0
0.367816 0.571429 0
0.367816 0.619048 0
0.367816 0.666667 0
0.367816 0.714286 0
0.367816 0.761905 0
0.367816 0.809524 0
0.367816 0.857143 0
0.367816 0.904762 0
0.367816 0.952381 0
0.367816 1 0
0.413793 0 0
0.413793 0.047619 0
0.413793 0.0952381 0
0.413793 0.142857 0
0.413793 0.190476 0
0.413793 0.238095 0
0.413793 0.285714 0
0.413793 0.333333 0
0.413793 0.380952 0
0.413793 0.428571 0
0.413793 0.47619 0
0.413793 0.52381 0
0.413793 0.571429 0
0.413793 0.619048 0
0.413793 0.666667 0
0.413793 0.714286 0
0.413793 0.761905 0
0.413793 0.809524 0
0.413793 0.857143 0
0.413793 0.904762 0
0.413793 0.952381 0
0.413793 1 0
0.45977 0 0
0.45977 0.047619 0
0.45977 0.0952381 0
0.45977 0.142857 0
0.45977 0.190476 0
0.45977 0.238095 0
0.45977 0.285714 0
0.45977 0.333333 0
0.45977 0.380952 0
0.45977 0.428571 0
0.45977 0.47619 0
0.45977 0.52381 0
0.45977 0.571429 0
0.45977 0.619048 0
0.45977 0.666667 0
0.45977 0.714286 0
0.45977 0.761905 0
0.45977 0.809524 0
0.45977 0.857143 0
0.45977 0.904762 0
0.45977 0.952381 0
0.45977 1 0
0.505747 0 0
0.505747 0.047619 0
0.505747 0.0952381 0
0.505747 0.142857 0
0.505747 0.190476 0
0.505747 0.238095 0
0.505747 0.285714 0
0.505747 0.333333 0
0.505747 0.380952 0
0.505747 0.428571 0
0.505747 0.47619 0
0.505747 0.52381 0
0.505747 0.571429 0
0.505747 0.619048 0
0.505747 0.666667 0
0.505747 0.714286 0
0.505747 0.761905 0
0.505747 0.809524 0
0.505747 0.857143 0
0.505747 0.904762 0
0.505747 0.952381 0
0.505747 1 0
0.551724 0 0
0.551724 0.047619 0
0.551724 0.0952381 0
0.551724 0.142857 0
0.551724 0.190476 0
0.551724 0.238095 0
0.551724 0.285714 0
0.551724 0.333333 0
0.551724 0.380952 0
0.551724 0.428571 0
0.551724 0.47619 0
0.551724 0.52381 0
0.551724 0.571429 0
0.551724 0.619048 0
0.551724 0.666667 0
0.551724 0.714286 0
0.551724 0.761905 0
0.551724 0.809524 0
0.551724 0.857143 0
0.551724 0.904762 0
0.551724 0.952381 0
0.551724 1 0
0.597701 0 0
0.597701 0.047619 0
0.597701 0.0952381 0
0.597701 0.142857 0
0.597701 0.190476 0
0.597701 0.238095 0
0.597701 0.285714 0
0.597701 0.333333 0
0.597701 0.380952 0
0.597701 0.428571 0
0.597701 0.47619 0
0.597701 0.52381 0
0.597701 0.571429 0
0.597701 0.619048 0
0.597701 0.666667 0
0.597701 0.714286 0
0.597701 0.761905 0
0.597701 0.809524 0
0.597701 0.857143 0
0.597701 0.904762 0
0.597701 0.952381 0
0.597701 1 0
0.643678 0 0
0.643678 0.047619 0
0.643678 0.0952381 0
0.643678 0.142857 0
0.643678 0.190476 0
0.643678 0.238095 0
0.643678 0.285714 0
0.643678 0.333333 0
0.643678 0.380952 0
0.643678 0.428571 0
0.643678 0.47619 0
0.643678 0.52381 0
0.643678 0.571429 0
0.643678 0.619048 0
0.643678 0.666667 0
0.643678 0.714286 0
0.643678 0.761905 0
0.643678 0.809524 0
0.643678 0.857143 0
0.643678 0.904762 0
0.643678 0.952381 0
0.643678 1 0
0.689655 0 0
0.689655 0.047619 0
0.689655 0.0952381 0
0.689655 0.142857 0
0.689655 0.190476 0
0.689655 0.238095 0
0.689655 0.285714 0
0.689655 0.333333 0
0.689655 0.380952 0
0.689655 0.428571 0
0.689655 0.47619 0
0.689655 0.52381 0
0.689655 0.571429 0
0.689655 0.619048 0
0.689655 0.666667 0
0.689655 0.714286 0
0.689655 0.761905 0
0.689655 0.809524 0
0.689655 0.857143 0
0.689655 0.904762 0
0.689655 0.952381 0
0.689655 1 0
0.735632 0 0
0.735632 0.047619 0
0.735632 0.0952381 0
0.735632 0.142857 0
0.735632 0.190476 0
0.735632 0.238095 0
0.735632 0.285714 0
0.735632 0.333333 0
0.735632 0.380952 0
0.735632 0.428571 0
0.735632 0.47619 0
0.735632 0.52381 0
0.735632 0.571429 0
0.735632 0.619048 0
0.735632 0.666667 0
0.735632 0.714286 0
0.735632 0.761905 0
0.735632 0.809524 0
0.735632 0.857143 0
0.735632 0.904762 0
0.735632 0.952381 0
0.735632 1 0
0.781609 0 0
0.781609 0.047619 0
0.781609 0.0952381 0
0.781609 0.142857 0
0.781609 0.190476 0
0.781609 0.238095 0
0.781609 0.285714 0
0.781609 0.333333 0
0.781609 0.380952 0
0.781609 0.428571 0
0.781609 0.47619 0
0.781609 0.52381 0
0.781609 0.571429 0
0.781609 0.619048 0
0.781609 0.666667 0
0.781609 0.714286 0
0.781609 0.761905 0
0.781609 0.809524 0
0.781609 0.857143 0
0.781609 0.904762 0
0.781609 0.952381 0
0.781609 1 0
0.827586 0 0
0.827586 0.047619 0
0.827586 0.0952381 0
0.827586 0.142857 0
0.827586 0.190476 0
0.827586 0.238095 0
0.827586 0.285714 0
0.827586 0.333333 0
0.827586 0.380952 0
0.827586 0.428571 0
0.827586 0.47619 0
0.827586 0.52381 0
0.827586 0.571429 0
0.827586 0.619048 0
0.827586 0.666667 0
0.827586 0.714286 0
0.827586 0.761905 0
0.827586 0.809524 0
0.827586 0.857143 0
0.827586 0.904762 0
0.827586 0.952381 0
0.827586 1 0
0.873563 0 0
0.873563 0.047619 0
0.873563 0.0952381 0
0.873563 0.142857 0
0.873563 0.190476 0
0.873563 0.238095 0
0.873563 0.285714 0
0.873563 0.333333 0
0.873563 0.380952 0
0.873563 0.428571 0
0.873563 0.47619 0
0.873563 0.52381 0
0.873563 0.571429 0
0.873563 0.619048 0
0.873563 0.666667 0
0.873563 0.714286 0
0.873563 0.761905 0
0.873563 0.809524 0
0.873563 0.857143 0
0.873563 0.904762 0
0.873563 0.952381 0
0.873563 1 0
0.91954 0 0
0.91954 0.047619 0
0.91954 0.0952381 0
0.91954 0.142857 0
0.91954 0.190476 0
0.91954 0.238095 0
0.91954 0.285714 0
0.91954 0.333333 0
0.91954 0.380952 0
0.91954 0.428571 0
0.91954 0.47619 0
0.91954 0.52381 0
0.91954 0.571429 0
0.91954 0.619048 0
0.91954 0.666667 0
0.91954 0.714286 0
0.91954 0.761905 0
0.91954 0.809524 0
0.91954 0.857143 0
0.91954 0.904762 0
0.91954 0.952381 0
0.91954 1 0
0.965517 0 0
0.965517 0.047619 0
0.965517 0.0952381 0
0.965517 0.142857 0
0.965517 0.190476 0
0.965517 0.238095 0
0.965517 0.285714 0
0.965517 0.333333 0
0.965517 0.380952 0
0.965517 0.428571 0
0.965517 0.47619 0
0.965517 0.52381 0
0.965517 0.571429 0
0.965517 0.619048 0
0.965517 0.666667 0
0.965517 0.714286 0
0.965517 0.761905 0
0.965517 0.809524 0
0.965517 0.857143 0
0.965517 0.904762 0
0.965517 0.952381 0
0.965517 1 0
1.01149 0 0
1.01149 0.047619 0
1.01149 0.0952381 0
1.01149 0.142857 0
1.01149 0.190476 0
1.01149 0.238095 0
1.01149 0.285714 0
1.01149 0.333333 0
1.01149 0.380952 0
1.01149 0.428571 0
1.01149 0.47619 0
1.01149 0.52381 0
1.01149 0.571429 0
1.01149 0.619048 0
1.01149 0.666667 0
1.01149 0.714286 0
1.01149 0.761905 0
1.01149 0.809524 0
1.01149 0.857143 0
1.01149 0.904762 0
1.01149 0.952381 0
1.01149 1 0
1.05747 0 0
1.05747 0.047619 0
1.05747 0.0952381 0
1.05747 0.142857 0
1.05747 0.190476 0
1.05747 0.238095 0
1.05747 0.285714 0
1.05747 0.333333 0
1.05747 0.380952 0
1.05747 0.428571 0
1.05747 0.47619 0
1.05747 0.52381 0
1.05747 0.571429 0
1.05747 0.619048 0
1.05747 0.666667 0
1.05747 0.714286 0
1.05747 0.761905 0
1.05747 0.809524 0
1.05747 0.857143 0
1.05747 0.904762 0
1.05747 0.952381 0
1.05747 1 0
1.10345 0 0
1.10345 0.047619 0
1.10345 0.0952381 0
1.10345 0.142857 0
1.10345 0.190476 0
1.10345 0.238095 0
1.10345 0.285714 0
1.10345 0.333333 0
1.10345 0.380952 0
1.10345 0.428571 0
1.10345 0.47619 0
1.10345 0.52381 0
1.10345 0.571429 0
[...]
POINT_DATA 1913
VECTORS velocity[m/s] double
-0 0.209679 0
0 0.209681 0
0 0.210022 0
0 0.182034 0
0 0.152184 0
0 0.123985 0
0 0.0976014 0
0 0.072686 0
0 0.048806 0
0 0.0255279 0
0 0.00242823 0
0 -0.0209212 0
0 -0.0449802 0
0 -0.0702762 0
0 -0.0974531 0
0 -0.127337 0
0 -0.161031 0
0 -0.200032 0
0 -0.245957 0
0 -0.295728 0
0 -0.305567 0
-0.87002 0.185264 0
0.870023 0.00163403 0
1.07214 0.185266 0
1.0995 0.209292 0
1.1013 0.185367 0
1.09971 0.15447 0
1.09795 0.125255 0
1.09654 0.0983433 0
1.09553 0.0731547 0
1.09495 0.049111 0
1.09477 0.0257186 0
1.095 0.00252867 0
1.09567 -0.0209001 0
1.09684 -0.0450375 0
1.09864 -0.0704232 0
1.10123 -0.097726 0
1.10488 -0.127836 0
1.10997 -0.161997 0
1.11663 -0.2017 0
1.12031 -0.246241 0
1.08174 -0.279466 0
0.77719 -0.23222 0
-0.692736 0.144567 0
0.692737 0.00129508 0
1.04895 0.144569 0
1.12261 0.190143 0
1.13114 0.179379 0
1.12792 0.152457 0
1.12395 0.124113 0
1.12087 0.0974963 0
1.11876 0.0725743 0
1.11754 0.0488181 0
1.11717 0.0257282 0
1.11763 0.00286125 0
1.11898 -0.0202073 0
1.12136 -0.0439218 0
1.12501 -0.0687873 0
1.13031 -0.0954225 0
1.13787 -0.12462 0
1.14832 -0.15726 0
1.15964 -0.193195 0
1.1524 -0.225954 0
1.03613 -0.22835 0
0.552987 -0.14446 0
-0.554418 0.105329 0
0.554417 0.000942917 0
1.00496 0.105331 0
1.13301 0.161727 0
1.15714 0.165073 0
1.1553 0.145509 0
1.14965 0.120186 0
1.14494 0.0949575 0
1.1417 0.0709364 0
1.13985 0.047934 0
1.13925 0.0255519 0
1.13991 0.0033995 0
1.14189 -0.0188985 0
1.14538 -0.0417277 0
1.15073 -0.0655139 0
1.15851 -0.0907479 0
1.1694 -0.117941 0
1.18302 -0.147161 0
1.19128 -0.175932 0
1.15473 -0.193134 0
0.95514 -0.170796 0
0.413518 -0.0824221 0
-0.453645 0.0735613 0
0.453642 0.000657915 0
0.950516 0.0735636 0
1.12979 0.131924 0
1.17604 0.146206 0
1.17976 0.134736 0
1.17402 0.113762 0
1.16814 0.0908472 0
1.16392 0.0683144 0
1.16147 0.0464938 0
1.16065 0.0251848 0
1.16145 0.0040947 0
1.16394 -0.0170751 0
1.16836 -0.038627 0
1.17511 -0.0608769 0
1.18477 -0.0841348 0
1.19762 -0.108527 0
1.21081 -0.133185 0
1.2079 -0.153714 0
1.13317 -0.157289 0
0.869823 -0.122205 0
0.333948 -0.0467171 0
-0.383269 0.0501455 0
0.383264 0.000448134 0
0.894177 0.0501479 0
1.11601 0.104918 0
1.18712 0.126097 0
1.20002 0.121783 0
1.19616 0.105542 0
1.1899 0.0854883 0
1.185 0.0648752 0
1.18205 0.0445747 0
1.18102 0.024634 0
1.1819 0.00488726 0
1.18476 -0.0148711 0
1.18985 -0.0348486 0
1.19757 -0.0552392 0
1.20833 -0.0761552 0
1.22144 -0.0973284 0
1.23064 -0.1171 0
1.21136 -0.130014 0
1.0993 -0.124039 0
0.796948 -0.0857885 0
0.288851 -0.0274365 0
-0.335299 0.0339644 0
0.335291 0.000303318 0
0.841305 0.0339671 0
1.09557 0.0823121 0
1.1913 0.106855 0
1.21571 0.108087 0
1.21553 0.0962953 0
1.20982 0.0792801 0
1.20461 0.0608306 0
1.20131 0.0422761 0
1.2001 0.023914 0
1.20098 0.00571379 0
1.20406 -0.0124334 0
1.20954 -0.0306406 0
1.21778 -0.0489833 0
1.22879 -0.067388 0
1.24054 -0.0852493 0
1.24312 -0.100378 0
1.2056 -0.107097 0
1.06238 -0.0955632 0
0.740618 -0.0597376 0
0.26237 -0.0168284 0
-0.302812 0.023265 0
0.302802 0.00020763 0
0.794636 0.0232678 0
1.07188 0.0642439 0
1.19012 0.0895253 0
1.2271 0.0946264 0
1.23196 0.0866601 0
1.22764 0.0725918 0
1.22253 0.0563866 0
1.21905 0.0396974 0
1.21768 0.02304 0
1.21851 0.00651227 0
1.22164 -0.00990447 0
1.22726 -0.0262376 0
1.23556 -0.0424579 0
1.24604 -0.0583336 0
1.25515 -0.073008 0
1.24962 -0.0840361 0
1.19448 -0.0861302 0
1.0278 -0.0721077 0
0.699199 -0.0412428 0
0.246132 -0.0105841 0
-0.280563 0.0163413 0
0.280551 0.000145746 0
0.755082 0.0163448 0
1.04748 0.0501413 0
1.1852 0.0744149 0
1.2348 0.081927 0
1.24556 0.0770612 0
1.24329 0.0656996 0
1.23866 0.0517058 0
1.23514 0.0369173 0
1.23365 0.0220208 0
1.23437 0.00722487 0
1.23742 -0.00741069 0
1.24294 -0.0218409 0
1.2509 -0.0359492 0
1.26022 -0.0493792 0
1.26581 -0.0611137 0
1.25165 -0.0686834 0
1.18095 -0.0675591 0
0.998011 -0.0531163 0
0.669607 -0.02794 0
0.235924 -0.00658461 0
-0.26494 0.0118201 0
0.264924 0.000105363 0
0.72246 0.0118253 0
1.02405 0.039163 0
1.17796 0.0613793 0
1.23951 0.0701565 0
1.25654 0.067707 0
1.25681 0.0587601 0
1.25294 0.0468856 0
1.24953 0.0339818 0
1.24794 0.0208535 0
1.24852 0.00779916 0
1.25137 -0.00505629 0
1.25657 -0.0176088 0
1.26387 -0.0296721 0
1.27156 -0.0407987 0
1.27313 -0.0498946 0
1.25057 -0.0546409 0
1.16701 -0.0514394 0
0.973713 -0.0378451 0
0.648999 -0.0181831 0
0.229577 -0.0038316 0
-0.253643 0.00871845 0
0.253622 7.76855e-05 0
0.696074 0.00872663 0
1.00261 0.0304489 0
1.16949 0.0500446 0
1.24188 0.0592443 0
1.26518 0.058634 0
1.26829 0.0518226 0
1.26541 0.0419606 0
1.26222 0.0309037 0
1.26056 0.0195242 0
1.26094 0.0081896 0
1.2635 -0.00292167 0
1.26822 -0.0136575 0
1.27463 -0.0237771 0
1.28035 -0.0327738 0
1.27772 -0.0395489 0
1.24749 -0.042056 0
1.1539 -0.0376633 0
0.95474 -0.0256329 0
0.635154 -0.0109281 0
0.225889 -0.0018565 0
-0.245314 0.00640356 0
0.245286 5.7054e-05 0
0.675111 0.00641581 0
0.983699 0.0232799 0
1.16062 0.0399968 0
1.24248 0.0490248 0
1.27177 0.0497946 0
1.27782 0.0448782 0
1.2761 0.0369297 0
1.27322 0.0276781 0
1.27151 0.0180161 0
1.27168 0.00836094 0
1.27387 -0.0010643 0
1.27801 -0.0100671 0
1.28332 -0.0183655 0
1.2869 -0.0254231 0
1.28015 -0.0301979 0
1.24326 -0.0309921 0
1.14229 -0.0260869 0
0.940554 -0.0159769 0
0.626406 -0.00554287 0
0.224108 -0.000433632 0
-0.239202 0.00452414 0
0.239161 4.03211e-05 0
0.658838 0.00454031 0
0.967569 0.0171739 0
1.15191 0.0309371 0
1.24175 0.0393788 0
1.27653 0.0411624 0
1.28551 0.0379313 0
1.28504 0.031802 0
1.28256 0.0243094 0
1.28084 0.0163239 0
1.28079 0.00829369 0
1.28257 0.00047958 0
1.28603 -0.0068912 0
1.29015 -0.0135076 0
1.29153 -0.0188312 0
1.28093 -0.0219267 0
1.23854 -0.021483 0
1.13254 -0.0165815 0
0.930491 -0.00851436 0
0.621485 -0.00163864 0
0.223701 0.000556204 0
-0.234888 0.00293154 0
0.234832 2.61498e-05 0
0.646651 0.0029502 0
0.954291 0.0119058 0
1.14377 0.0227646 0
1.24004 0.0303289 0
1.27966 0.0328135 0
1.29143 0.0310602 0
1.29229 0.0266377 0
1.29028 0.0208372 0
1.28861 0.0144676 0
1.28834 0.00798948 0
1.2897 0.00169351 0
1.29243 -0.00416427 0
1.2953 -0.00925582 0
1.29453 -0.0130667 0
1.28052 -0.0148054 0
1.23382 -0.0135504 0
1.12477 -0.0090332 0
0.923865 -0.00296753 0
0.619378 0.00104996 0
0.22425 0.00119075 0
-0.232099 0.0015985 0
0.232025 1.42884e-05 0
0.638015 0.00161739 0
0.943817 0.00744573 0
1.13648 0.0155623 0
1.23765 0.0220507 0
1.28136 0.0249467 0
1.29571 0.0244375 0
1.2979 0.0215654 0
1.29644 0.0173477 0
1.29487 0.0124995 0
1.29443 0.0074733 0
1.29537 0.00257951 0
1.29735 -0.0019054 0
1.29899 -0.00564976 0
1.29621 -0.00818568 0
1.27932 -0.00888706 0
1.22947 -0.00719333 0
1.11892 -0.00331654 0
0.919998 0.000911944 0
0.619254 0.00273899 0
0.225412 0.00153572 0
-0.230587 0.000545827 0
0.230495 4.91757e-06 0
0.632399 0.000562679 0
0.935992 0.00385251 0
1.13023 0.00950311 0
1.23486 0.0148041 0
1.28186 0.0178376 0
1.2985 0.0183011 0
1.30198 0.0167652 0
1.30113 0.0139656 0
1.29974 0.0104994 0
1.29917 0.0067909 0
1.29971 0.0031566 0
1.30098 -0.000118189 0
1.30145 -0.00271244 0
1.2969 -0.00422213 0
1.27769 -0.00419112 0
1.22574 -0.00236526 0
1.11485 0.00073356 0
0.918246 0.00337882 0
0.620428 0.00363059 0
0.226907 0.00165522 0
-0.230082 -0.000209747 0
0.229974 -1.81442e-06 0
0.629234 -0.000196551 0
0.930548 0.00117018 0
1.12512 0.00473295 0
1.23195 0.00882795 0
1.28143 0.0117542 0
1.29999 0.0128937 0
1.30469 0.0124287 0
1.30448 0.0108289 0
1.30333 0.0085604 0
1.30269 0.00600133 0
1.30288 0.00345829 0
1.3035 0.00121154 0
1.30292 -0.000442381 0
1.29688 -0.00117353 0
1.27594 -0.00068422 0
1.22276 0.00104456 0
1.11231 0.00333504 0
0.918015 0.00470514 0
0.622348 0.00392138 0
0.228517 0.00161204 0
-0.2303 -0.000680578 0
0.230179 -6.01582e-06 0
0.627927 -0.000671691 0
0.927119 -0.000632067 0
1.12118 0.00128606 0
1.22913 0.00424842 0
1.28034 0.00687548 0
1.30045 0.00839853 0
1.30625 0.00871284 0
1.30669 0.00805872 0
1.30581 0.00677079 0
1.30515 0.00516711 0
1.30506 0.00352894 0
1.3051 0.00211732 0
1.30363 0.00119284 0
1.29642 0.00100887 0
1.27428 0.0017288 0
1.22056 0.00321291 0
1.111 0.00475119 0
0.918783 0.00517026 0
0.624589 0.00379586 0
0.230085 0.00146409 0
-0.230969 -0.000909526 0
0.23084 -8.06557e-06 0
0.6279 -0.000904714 0
0.925279 -0.0016687 0
1.11833 -0.000940025 0
1.22661 0.00103916 0
1.27888 0.00324631 0
1.30016 0.00489757 0
1.30689 0.00570714 0
1.30794 0.00573595 0
1.30737 0.0051982 0
1.30674 0.00434478 0
1.30643 0.00341903 0
1.30601 0.00265083 0
1.30382 0.00225733 0
1.29574 0.00241989 0
1.27286 0.00319885 0
1.21908 0.00436659 0
1.11061 0.00526705 0
0.920122 0.00504042 0
0.626852 0.00341539 0
0.23151 0.0012603 0
-0.231857 -0.000957828 0
0.231723 -8.50651e-06 0
0.628649 -0.000956272 0
0.924587 -0.00211032 0
1.11643 -0.00215583 0
1.22449 -0.000964078 0
1.27729 0.000777298 0
1.29939 0.00236323 0
1.30687 0.00342182 0
1.30847 0.00388981 0
1.3082 0.00388078 0
1.30765 0.00357827 0
1.30719 0.00318017 0
1.3064 0.00287734 0
1.30368 0.00284074 0
1.295 0.00318948 0
1.27174 0.00391345 0
1.21822 0.00475449 0
1.11084 0.00515962 0
0.921702 0.00454798 0
0.628944 0.00290937 0
0.232738 0.00103824 0
-0.23279 -0.000889749 0
0.232655 -7.90933e-06 0
0.629775 -0.000890414 0
0.924642 -0.00214338 0
1.11529 -0.00262403 0
1.22282 -0.00201207 0
1.27577 -0.000718917 0
1.29838 0.000679125 0
1.30643 0.00179759 0
1.30849 0.00250089 0
1.3085 0.00282626 0
1.30804 0.00289601 0
1.30749 0.00286055 0
1.30644 0.00286878 0
1.30335 0.00304714 0
1.29431 0.00346517 0
1.27094 0.00407142 0
1.21784 0.00461751 0
1.11144 0.0046718 0
0.923295 0.00387766 0
0.630761 0.0023719 0
0.233751 0.00082366 0
-0.233658 -0.000760827 0
0.233523 -6.76798e-06 0
0.630996 -0.000762739 0
0.925117 -0.00193601 0
1.11471 -0.00260373 0
1.22158 -0.00238115 0
1.27443 -0.00147614 0
1.29731 -0.000323234 0
1.30576 0.000728539 0
1.30818 0.00151359 0
1.30845 0.00201741 0
1.30809 0.00231142 0
1.30749 0.00250149 0
1.30628 0.00269613 0
1.30296 0.00298236 0
1.29373 0.00339327 0
1.27043 0.00385908 0
1.2178 0.00416481 0
1.11221 0.00399632 0
0.924759 0.0031621 0
0.632266 0.00186379 0
0.234557 0.000631853 0
-0.234402 -0.000612072 0
0.234269 -5.44772e-06 0
0.632139 -0.000614472 0
0.925773 -0.00161859 0
1.1145 -0.00231216 0
1.22072 -0.00232372 0
1.27333 -0.00172692 0
1.2963 -0.000826316 0
1.30501 8.87432e-05 0
1.30771 0.000852613 0
1.30817 0.00142073 0
1.30791 0.00182579 0
1.30731 0.00213553 0
1.30601 0.00242298 0
1.30257 0.00274287 0
1.29329 0.00310379 0
1.27014 0.00343348 0
1.21797 0.00356027 0
1.11303 0.00327099 0
0.926022 0.00248575 0
0.633465 0.00141833 0
0.235177 0.000469869 0
-0.235003 -0.000469381 0
0.234872 -4.17961e-06 0
0.633119 -0.00047177 0
0.926452 -0.00127891 0
1.11453 -0.00190809 0
1.22015 -0.00203993 0
1.27247 -0.00166994 0
1.29543 -0.000997175 0
1.30429 -0.000245109 0
1.30717 0.000438377 0
1.30779 0.000995456 0
1.30762 0.00143206 0
1.30705 0.00178593 0
1.30571 0.00210139 0
1.30223 0.00240859 0
1.29299 0.00270136 0
1.27003 0.00291438 0
1.21826 0.0029196 0
1.1138 0.00258317 0
0.927062 0.00189394 0
0.634391 0.00104855 0
0.23564 0.000339009 0
-0.235467 -0.000346123 0
0.235338 -3.08327e-06 0
0.633908 -0.000348229 0
0.92707 -0.000967357 0
1.11466 -0.00149281 0
1.2198 -0.00166968 0
1.27183 -0.00145534 0
1.29471 -0.000970788 0
1.30364 -0.000378911 0
1.30664 0.000198164 0
1.30738 0.000700836 0
1.30729 0.00111856 0
1.30675 0.00146741 0
1.30543 0.00177021 0
1.30196 0.00203978 0
1.29279 0.00226242 0
1.27003 0.00238413 0
1.2186 0.00231524 0
1.11447 0.00197962 0
0.927888 0.00140378 0
0.635085 0.000754241 0
0.235977 0.000237068 0
-0.235812 -0.000246871 0
0.235686 -2.19988e-06 0
0.634515 -0.000248588 0
0.927586 -0.000706566 0
1.11484 -0.00112097 0
1.2196 -0.0012987 0
1.27137 -0.00118416 0
1.29415 -0.000845097 0
1.30309 -0.000394545 0
1.30616 7.2305e-05 0
1.30699 0.000500853 0
1.30696 0.00087202 0
1.30647 0.00118757 0
1.30518 0.00145554 0
1.30175 0.00167753 0
1.29268 0.0018372 0
1.27011 0.0018928 0
1.21893 0.0017854 0
1.11504 0.00147811 0
0.928524 0.00101438 0
0.635593 0.000527831 0
0.236215 0.000160074 0
-0.236062 -0.000170931 0
0.235937 -1.52366e-06 0
0.634967 -0.000172256 0
0.927996 -0.000501409 0
1.11502 -0.000814697 0
1.2195 -0.000971221 0
1.27106 -0.000916357 0
1.29372 -0.000684096 0
1.30265 -0.000349654 0
1.30576 1.59984e-05 0
1.30664 0.000366429 0
1.30667 0.000679544 0
1.30622 0.000948707 0
1.30497 0.00117268 0
1.30161 0.00134659 0
1.29264 0.00145441 0
1.27022 0.00146561 0
1.21924 0.00134421 0
1.11549 0.00107807 0
0.929003 0.000715083 0
0.635957 0.000358522 0
0.236378 0.000103493 0
-0.236239 -0.000115047 0
0.236115 -1.02583e-06 0
0.635293 -0.00011603 0
0.928307 -0.000347145 0
1.11518 -0.000576426 0
1.21946 -0.000703771 0
1.27084 -0.000681883 0
1.29341 -0.000524931 0
1.3023 -0.000281189 0
1.30543 -1.79647e-06 0
1.30634 0.000275742 0
1.30642 0.000529749 0
1.30601 0.000749486 0
1.30481 0.000928608 0
1.30151 0.00105915 0
1.29263 0.00112694 0
1.27035 0.00111076 0
1.2195 0.000990695 0
1.11585 0.000768991 0
0.929356 0.000491172 0
0.636212 0.00023499 0
0.236487 6.29554e-05 0
-0.236362 -7.51541e-05 0
0.236239 -6.70345e-07 0
0.635525 -7.58627e-05 0
0.928537 -0.000235033 0
1.11531 -0.000398597 0
1.21945 -0.000496718 0
1.2707 -0.000491308 0
1.29318 -0.00038586 0
1.30204 -0.000210431 0
1.30517 -9.44755e-07 0
1.30611 0.000213402 0
1.30621 0.000413189 0
1.30585 0.00058642 0
1.30469 0.000724547 0
1.30145 0.000818708 0
1.29266 0.00085719 0
1.27047 0.000825991 0
1.21972 0.000715784 0
1.11613 0.000536266 0
0.929611 0.000327461 0
0.636387 0.000146855 0
0.236556 3.46295e-05 0
-0.236446 -4.73593e-05 0
0.236324 -4.22601e-07 0
0.635687 -4.78608e-05 0
0.928703 -0.00015566 0
1.11542 -0.000269954 0
1.21945 -0.000342565 0
1.2706 -0.000344195 0
1.29302 -0.000273228 0
1.30185 -0.00014793 0
1.30497 6.90078e-06 0
1.30592 0.000169131 0
1.30605 0.000322345 0
1.30572 0.000454991 0
1.30461 0.000558147 0
1.30142 0.000623346 0
1.2927 0.000641391 0
1.27058 0.000603551 0
1.21991 0.000507086 0
1.11634 0.000364773 0
0.929794 0.000210192 0
0.636503 8.53295e-05 0
0.236597 1.53569e-05 0
-0.236504 -2.83708e-05 0
0.236382 -2.53315e-07 0
0.635799 -2.87225e-05 0
0.928822 -0.000100599 0
1.1155 -0.00017909 0
1.21946 -0.000231145 0
1.27054 -0.000234885 0
1.29291 -0.000186725 0
1.30171 -9.7573e-05 0
1.30482 1.56214e-05 0
1.30578 0.000136387 0
1.30593 0.000251397 0
1.30563 0.000350414 0
1.30456 0.000425175 0
1.30142 0.00046826 0
1.29274 0.00047274 0
1.27069 0.000433568 0
1.22005 0.000351809 0
1.1165 0.000240777 0
0.929922 0.000127816 0
0.636579 4.33553e-05 0
0.23662 2.64526e-06 0
-0.236543 -1.56085e-05 0
0.236421 -1.39516e-07 0
0.635877 -1.5855e-05 0
0.928905 -6.301e-05 0
1.11555 -0.000116091 0
1.21947 -0.000152442 0
1.2705 -0.000156029 0
1.29283 -0.000122908 0
1.3016 -5.9539e-05 0
1.30471 2.25269e-05 0
1.30568 0.000111179 0
1.30585 0.000195906 0
1.30556 0.000268116 0
1.30452 0.000320684 0
1.30142 0.000347476 0
1.29279 0.000343456 0
1.27077 0.000306051 0
1.22017 0.000238301 0
1.11661 0.00015271 0
0.930012 7.11146e-05 0
0.636626 1.54753e-05 0
0.23663 -5.40689e-06 0
-0.236569 -7.14939e-06 0
0.236448 -6.40761e-08 0
0.63593 -7.32382e-06 0
0.928964 -3.76724e-05 0
1.1156 -7.30393e-05 0
1.21948 -9.78481e-05 0
1.27048 -0.000100467 0
1.29278 -7.73204e-05 0
1.30153 -3.22439e-05 0
1.30464 2.68614e-05 0
1.3056 9.11516e-05 0
1.30578 0.000152508 0
1.30552 0.000203992 0
1.3045 0.000239752 0
1.30143 0.000254929 0
1.29283 0.000245992 0
1.27085 0.000211955 0
1.22026 0.000156697 0
1.1167 9.13001e-05 0
0.930073 3.29889e-05 0
0.636653 -2.4128e-06 0
0.236633 -1.02128e-05 0
-0.236587 -1.61122e-06 0
0.236466 -1.46787e-08 0
0.635966 -1.73689e-06 0
0.929006 -2.07642e-05 0
1.11563 -4.39521e-05 0
1.21949 -6.05209e-05 0
1.27047 -6.20637e-05 0
1.29274 -4.5618e-05 0
1.30148 -1.35009e-05 0
1.30458 2.88326e-05 0
1.30555 7.49405e-05 0
1.30574 0.000118649 0
1.30549 0.000154508 0
1.3045 0.000177882 0
1.30145 0.000185051 0
1.29287 0.000173632 0
1.27091 0.000143608 0
1.22033 9.90255e-05 0
1.11676 4.93661e-05 0
0.930114 8.11144e-06 0
0.636668 -1.3325e-05 0
0.23663 -1.27997e-05 0
-0.236599 1.97386e-06 0
0.236478 1.73023e-08 0
0.635992 1.88094e-06 0
0.929036 -9.56818e-06 0
1.11565 -2.44678e-05 0
1.2195 -3.52852e-05 0
1.27046 -3.59304e-05 0
1.29272 -2.40663e-05 0
1.30145 -1.1394e-06 0
1.30454 2.90315e-05 0
1.30552 6.17505e-05 0
1.30571 9.23733e-05 0
1.30548 0.00011671 0
1.3045 0.000131188 0
1.30146 0.000133039 0
1.29291 0.000120725 0
1.27096 9.47833e-05 0
1.22038 5.90612e-05 0
1.11681 2.14857e-05 0
0.930142 -7.43454e-06 0
0.636675 -1.94386e-05 0
0.236625 -1.39005e-05 0
-0.236608 4.26989e-06 0
0.236487 3.77867e-08 0
0.63601 4.19899e-06 0
0.929057 -2.19356e-06 0
1.11567 -1.14905e-05 0
1.21951 -1.83604e-05 0
1.27045 -1.83566e-05 0
1.2927 -9.68277e-06 0
1.30143 6.71547e-06 0
1.30452 2.81194e-05 0
1.30549 5.10943e-05 0
1.3057 7.21721e-05 0
1.30547 8.81828e-05 0
1.3045 9.64334e-05 0
1.30148 9.49146e-05 0
1.29294 8.269e-05 0
1.271 6.05809e-05 0
1.22043 3.20564e-05 0
1.11684 3.64227e-06 0
0.930161 -1.64822e-05 0
0.636676 -2.23005e-05 0
0.236618 -1.40281e-05 0
-0.236614 5.7251e-06 0
0.236493 5.07713e-08 0
0.636023 5.66921e-06 0
0.929073 2.65411e-06 0
1.11568 -2.86436e-06 0
1.21951 -7.0529e-06 0
1.27045 -6.62058e-06 0
1.29269 -2.00246e-07 0
1.30141 1.15571e-05 0
1.3045 2.66803e-05 0
1.30548 4.26433e-05 0
1.30569 5.68674e-05 0
1.30547 6.69835e-05 0
1.30451 7.0996e-05 0
1.3015 6.74798e-05 0
1.29297 5.59155e-05 0
1.27103 3.72331e-05 0
1.22046 1.44584e-05 0
1.11687 -7.09276e-06 0
0.930173 -2.10515e-05 0
0.636675 -2.29928e-05 0
0.236611 -1.35355e-05 0
-0.236618 6.63793e-06 0
0.236497 5.89172e-08 0
0.636032 6.5925e-06 0
0.929084 5.84932e-06 0
1.11569 2.88929e-06 0
1.21952 5.19868e-07 0
1.27045 1.22282e-06 0
1.29269 6.04288e-06 0
1.30141 1.45101e-05 0
1.3045 2.51688e-05 0
1.30547 3.61478e-05 0
1.30569 4.55328e-05 0
1.30547 5.15678e-05 0
1.30452 5.27944e-05 0
1.30152 4.82232e-05 0
1.29299 3.76124e-05 0
1.27106 2.1895e-05 0
1.22049 3.64983e-06 0
1.11689 -1.28255e-05 0
0.930181 -2.25625e-05 0
0.636672 -2.22602e-05 0
0.236605 -1.26601e-05 0
-0.236621 7.20442e-06 0
0.2365 6.39731e-08 0
0.636039 7.16657e-06 0
0.929094 7.97589e-06 0
1.1157 6.77171e-06 0
1.21953 5.65265e-06 0
1.27045 6.53466e-06 0
1.29269 1.02291e-05 0
1.3014 1.63846e-05 0
1.30449 2.39073e-05 0
1.30547 3.13987e-05 0
1.30569 3.74355e-05 0
1.30548 4.07224e-05 0
1.30453 4.02039e-05 0
1.30154 3.52065e-05 0
1.29301 2.56646e-05 0
1.27108 1.24523e-05 0
1.22051 -2.27045e-06 0
1.11691 -1.50497e-05 0
0.930187 -2.1998e-05 0
0.636669 -2.06054e-05 0
0.236599 -1.15573e-05 0
-0.236623 7.55159e-06 0
0.236502 6.70721e-08 0
0.636045 7.5195e-06 0
0.929101 9.41887e-06 0
1.11571 9.45254e-06 0
1.21953 9.22293e-06 0
1.27046 1.02493e-05 0
1.29269 1.31782e-05 0
1.3014 1.77419e-05 0
1.30449 2.31048e-05 0
1.30547 2.82103e-05 0
1.30569 3.19949e-05 0
1.30548 3.3503e-05 0
1.30454 3.19744e-05 0
1.30155 2.69581e-05 0
1.29303 1.84913e-05 0
1.2711 7.35672e-06 0
1.22053 -4.66337e-06 0
1.11692 -1.48079e-05 0
0.930192 -2.00252e-05 0
0.636667 -1.83583e-05 0
0.236594 -1.03253e-05 0
-0.236625 7.76028e-06 0
0.236504 6.89353e-08 0
0.636049 7.73278e-06 0
0.929107 1.04286e-05 0
1.11571 1.13734e-05 0
1.21954 1.18162e-05 0
1.27046 1.29957e-05 0
1.29269 1.54441e-05 0
1.3014 1.89562e-05 0
1.30449 2.28833e-05 0
1.30547 2.64162e-05 0
1.30569 2.87524e-05 0
1.30549 2.91827e-05 0
1.30455 2.71576e-05 0
1.30157 2.23773e-05 0
1.29305 1.49306e-05 0
1.27112 5.49295e-06 0
1.22054 -4.48591e-06 0
1.11693 -1.28124e-05 0
0.930196 -1.70837e-05 0
0.636665 -1.57265e-05 0
0.23659 -9.02169e-06 0
-0.236626 7.88061e-06 0
0.236505 7.00103e-08 0
0.636052 7.85698e-06 0
0.929111 1.11644e-05 0
1.11572 1.282e-05 0
1.21954 1.38154e-05 0
1.27046 1.5188e-05 0
1.29269 1.73905e-05 0
1.3014 2.02657e-05 0
1.30449 2.33018e-05 0
1.30548 2.5868e-05 0
1.3057 2.73485e-05 0
1.3055 2.72087e-05 0
1.30456 2.50455e-05 0
1.30158 2.06557e-05 0
1.29306 1.41444e-05 0
1.27114 6.07446e-06 0
1.22056 -2.39435e-06 0
1.11694 -9.53438e-06 0
0.9302 -1.34502e-05 0
0.636664 -1.2831e-05 0
0.236586 -7.67619e-06 0
-0.236626 7.94227e-06 0
0.236506 7.05619e-08 0
0.636054 7.92202e-06 0
0.929115 1.17243e-05 0
1.11572 1.39718e-05 0
1.21954 1.54638e-05 0
1.27046 1.709e-05 0