# vtk DataFile Version 3.0
vtk output
ASCII
DATASET UNSTRUCTURED_GRID
POINTS 1913 double
0.045977 0 0
0.045977 0.0952381 0
0.045977 0.142857 0
0.045977 0.190476 0
0.045977 0.238095 0
0.045977 0.285714 0
0.045977 0.333333 0
0.045977 0.380952 0
0.045977 0.428571 0
0.045977 0.47619 0
0.045977 0.52381 0
0.045977 0.571429 0
0.045977 0.619048 0
0.045977 0.666667 0
0.045977 0.714286 0
0.045977 0.761905 0
0.045977 0.809524 0
0.045977 0.857143 0
0.045977 0.904762 0
0.045977 0.952381 0
0.045977 1 0
0.091954 0 0
0.091954 0.047619 0
0.091954 0.0952381 0
0.091954 0.142857 0
0.091954 0.190476 0
0.091954 0.238095 0
0.091954 0.285714 0
0.091954 0.333333 0
0.091954 0.380952 0
0.091954 0.428571 0
0.091954 0.47619 0
0.091954 0.52381 0
0.091954 0.571429 0
0.091954 0.619048 0
0.091954 0.666667 0
0.091954 0.714286 0
0.091954 0.761905 0
0.091954 0.809524 0
0.091954 0.857143 0
0.091954 0.904762 0
0.091954 0.952381 0
0.091954 1 0
0.137931 0 0
0.137931 0.047619 0
0.137931 0.0952381 0
0.137931 0.142857 0
0.137931 0.190476 0
0.137931 0.238095 0
0.137931 0.285714 0
0.137931 0.333333 0
0.137931 0.380952 0
0.137931 0.428571 0
0.137931 0.47619 0
0.137931 0.52381 0
0.137931 0.571429 0
0.137931 0.619048 0
0.137931 0.666667 0
0.137931 0.714286 0
0.137931 0.761905 0
0.137931 0.809524 0
0.137931 0.857143 0
0.137931 0.904762 0
0.137931 0.952381 0
0.137931 1 0
0.183908 0 0
0.183908 0.047619 0
0.183908 0.0952381 0
0.183908 0.142857 0
0.183908 0.190476 0
0.183908 0.238095 0
0.183908 0.285714 0
0.183908 0.333333 0
0.183908 0.380952 0
0.183908 0.428571 0
0.183908 0.47619 0
0.183908 0.52381 0
0.183908 0.571429 0
0.183908 0.619048 0
0.183908 0.666667 0
0.183908 0.714286 0
0.183908 0.761905 0
0.183908 0.809524 0
0.183908 0.857143 0
0.183908 0.904762 0
0.183908 0.952381 0
0.183908 1 0
0.229885 0 0
0.229885 0.047619 0
0.229885 0.0952381 0
0.229885 0.142857 0
0.229885 0.190476 0
0.229885 0.238095 0
0.229885 0.285714 0
0.229885 0.333333 0
0.229885 0.380952 0
0.229885 0.428571 0
0.229885 0.47619 0
0.229885 0.52381 0
0.229885 0.571429 0
0.229885 0.619048 0
0.229885 0.666667 0
0.229885 0.714286 0
0.229885 0.761905 0
0.229885 0.809524 0
0.229885 0.857143 0
0.229885 0.904762 0
0.229885 0.952381 0
0.229885 1 0
0.275862 0 0
0.275862 0.047619 0
0.275862 0.0952381 0
0.275862 0.142857 0
0.275862 0.190476 0
0.275862 0.238095 0
0.275862 0.285714 0
0.275862 0.333333 0
0.275862 0.380952 0
0.275862 0.428571 0
0.275862 0.47619 0
0.275862 0.52381 0
0.275862 0.571429 0
0.275862 0.619048 0
0.275862 0.666667 0
0.275862 0.714286 0
0.275862 0.761905 0
0.275862 0.809524 0
0.275862 0.857143 0
0.275862 0.904762 0
0.275862 0.952381 0
0.275862 1 0
0.321839 0 0
0.321839 0.047619 0
0.321839 0.0952381 0
0.321839 0.142857 0
0.321839 0.190476 0
0.321839 0.238095 0
0.321839 0.285714 0
0.321839 0.333333 0
0.321839 0.380952 0
0.321839 0.428571 0
0.321839 0.47619 0
0.321839 0.52381 0
0.321839 0.571429 0
0.321839 0.619048 0
0.321839 0.666667 0
0.321839 0.714286 0
0.321839 0.761905 0
0.321839 0.809524 0
0.321839 0.857143 0
0.321839 0.904762 0
0.321839 0.952381 0
0.321839 1 0
0.367816 0 0
0.367816 0.047619 0
0.367816 0.0952381 0
0.367816 0.142857 0
0.367816 0.190476 0
0.367816 0.238095 0
0.367816 0.285714 0
0.367816 0.333333 0
0.367816 0.380952 0
0.367816 0.428571 0
0.367816 0.47619 0
0.367816 0.52381 0
0.367816 0.571429 0
0.367816 0.619048 0
0.367816 0.666667 0
0.367816 0.714286 0
0.367816 0.761905 0
0.367816 0.809524 0
0.367816 0.857143 0
0.367816 0.904762 0
0.367816 0.952381 0
0.367816 1 0
0.413793 0 0
0.413793 0.047619 0
0.413793 0.0952381 0
0.413793 0.142857 0
0.413793 0.190476 0
0.413793 0.238095 0
0.413793 0.285714 0
0.413793 0.333333 0
0.413793 0.380952 0
0.413793 0.428571 0
0.413793 0.47619 0
0.413793 0.52381 0
0.413793 0.571429 0
0.413793 0.619048 0
0.413793 0.666667 0
0.413793 0.714286 0
0.413793 0.761905 0
0.413793 0.809524 0
0.413793 0.857143 0
0.413793 0.904762 0
0.413793 0.952381 0
0.413793 1 0
0.45977 0 0
0.45977 0.047619 0
0.45977 0.0952381 0
0.45977 0.142857 0
0.45977 0.190476 0
0.45977 0.238095 0
0.45977 0.285714 0
0.45977 0.333333 0
0.45977 0.380952 0
0.45977 0.428571 0
0.45977 0.47619 0
0.45977 0.52381 0
0.45977 0.571429 0
0.45977 0.619048 0
0.45977 0.666667 0
0.45977 0.714286 0
0.45977 0.761905 0
0.45977 0.809524 0
0.45977 0.857143 0
0.45977 0.904762 0
0.45977 0.952381 0
0.45977 1 0
0.505747 0 0
0.505747 0.047619 0
0.505747 0.0952381 0
0.505747 0.142857 0
0.505747 0.190476 0
0.505747 0.238095 0
0.505747 0.285714 0
0.505747 0.333333 0
0.505747 0.380952 0
0.505747 0.428571 0
0.505747 0.47619 0
0.505747 0.52381 0
0.505747 0.571429 0
0.505747 0.619048 0
0.505747 0.666667 0
0.505747 0.714286 0
0.505747 0.761905 0
0.505747 0.809524 0
0.505747 0.857143 0
0.505747 0.904762 0
0.505747 0.952381 0
0.505747 1 0
0.551724 0 0
0.551724 0.047619 0
0.551724 0.0952381 0
0.551724 0.142857 0
0.551724 0.190476 0
0.551724 0.238095 0
0.551724 0.285714 0
0.551724 0.333333 0
0.551724 0.380952 0
0.551724 0.428571 0
0.551724 0.47619 0
0.551724 0.52381 0
0.551724 0.571429 0
0.551724 0.619048 0
0.551724 0.666667 0
0.551724 0.714286 0
0.551724 0.761905 0
0.551724 0.809524 0
0.551724 0.857143 0
0.551724 0.904762 0
0.551724 0.952381 0
0.551724 1 0
0.597701 0 0
0.597701 0.047619 0
0.597701 0.0952381 0
0.597701 0.142857 0
0.597701 0.190476 0
0.597701 0.238095 0
0.597701 0.285714 0
0.597701 0.333333 0
0.597701 0.380952 0
0.597701 0.428571 0
0.597701 0.47619 0
0.597701 0.52381 0
0.597701 0.571429 0
0.597701 0.619048 0
0.597701 0.666667 0
0.597701 0.714286 0
0.597701 0.761905 0
0.597701 0.809524 0
0.597701 0.857143 0
0.597701 0.904762 0
0.597701 0.952381 0
0.597701 1 0
0.643678 0 0
0.643678 0.047619 0
0.643678 0.0952381 0
0.643678 0.142857 0
0.643678 0.190476 0
0.643678 0.238095 0
0.643678 0.285714 0
0.643678 0.333333 0
0.643678 0.380952 0
0.643678 0.428571 0
0.643678 0.47619 0
0.643678 0.52381 0
0.643678 0.571429 0
0.643678 0.619048 0
0.643678 0.666667 0
0.643678 0.714286 0
0.643678 0.761905 0
0.643678 0.809524 0
0.643678 0.857143 0
0.643678 0.904762 0
0.643678 0.952381 0
0.643678 1 0
0.689655 0 0
0.689655 0.047619 0
0.689655 0.0952381 0
0.689655 0.142857 0
0.689655 0.190476 0
0.689655 0.238095 0
0.689655 0.285714 0
0.689655 0.333333 0
0.689655 0.380952 0
0.689655 0.428571 0
0.689655 0.47619 0
0.689655 0.52381 0
0.689655 0.571429 0
0.689655 0.619048 0
0.689655 0.666667 0
0.689655 0.714286 0
0.689655 0.761905 0
0.689655 0.809524 0
0.689655 0.857143 0
0.689655 0.904762 0
0.689655 0.952381 0
0.689655 1 0
0.735632 0 0
0.735632 0.047619 0
0.735632 0.0952381 0
0.735632 0.142857 0
0.735632 0.190476 0
0.735632 0.238095 0
0.735632 0.285714 0
0.735632 0.333333 0
0.735632 0.380952 0
0.735632 0.428571 0
0.735632 0.47619 0
0.735632 0.52381 0
0.735632 0.571429 0
0.735632 0.619048 0
0.735632 0.666667 0
0.735632 0.714286 0
0.735632 0.761905 0
0.735632 0.809524 0
0.735632 0.857143 0
0.735632 0.904762 0
0.735632 0.952381 0
0.735632 1 0
0.781609 0 0
0.781609 0.047619 0
0.781609 0.0952381 0
0.781609 0.142857 0
0.781609 0.190476 0
0.781609 0.238095 0
0.781609 0.285714 0
0.781609 0.333333 0
0.781609 0.380952 0
0.781609 0.428571 0
0.781609 0.47619 0
0.781609 0.52381 0
0.781609 0.571429 0
0.781609 0.619048 0
0.781609 0.666667 0
0.781609 0.714286 0
0.781609 0.761905 0
0.781609 0.809524 0
0.781609 0.857143 0
0.781609 0.904762 0
0.781609 0.952381 0
0.781609 1 0
0.827586 0 0
0.827586 0.047619 0
0.827586 0.0952381 0
0.827586 0.142857 0
0.827586 0.190476 0
0.827586 0.238095 0
0.827586 0.285714 0
0.827586 0.333333 0
0.827586 0.380952 0
0.827586 0.428571 0
0.827586 0.47619 0
0.827586 0.52381 0
0.827586 0.571429 0
0.827586 0.619048 0
0.827586 0.666667 0
0.827586 0.714286 0
0.827586 0.761905 0
0.827586 0.809524 0
0.827586 0.857143 0
0.827586 0.904762 0
0.827586 0.952381 0
0.827586 1 0
0.873563 0 0
0.873563 0.047619 0
0.873563 0.0952381 0
0.873563 0.142857 0
0.873563 0.190476 0
0.873563 0.238095 0
0.873563 0.285714 0
0.873563 0.333333 0
0.873563 0.380952 0
0.873563 0.428571 0
0.873563 0.47619 0
0.873563 0.52381 0
0.873563 0.571429 0
0.873563 0.619048 0
0.873563 0.666667 0
0.873563 0.714286 0
0.873563 0.761905 0
0.873563 0.809524 0
0.873563 0.857143 0
0.873563 0.904762 0
0.873563 0.952381 0
0.873563 1 0
0.91954 0 0
0.91954 0.047619 0
0.91954 0.0952381 0
0.91954 0.142857 0
0.91954 0.190476 0
0.91954 0.238095 0
0.91954 0.285714 0
0.91954 0.333333 0
0.91954 0.380952 0
0.91954 0.428571 0
0.91954 0.47619 0
0.91954 0.52381 0
0.91954 0.571429 0
0.91954 0.619048 0
0.91954 0.666667 0
0.91954 0.714286 0
0.91954 0.761905 0
0.91954 0.809524 0
0.91954 0.857143 0
0.91954 0.904762 0
0.91954 0.952381 0
0.91954 1 0
0.965517 0 0
0.965517 0.047619 0
0.965517 0.0952381 0
0.965517 0.142857 0
0.965517 0.190476 0
0.965517 0.238095 0
0.965517 0.285714 0
0.965517 0.333333 0
0.965517 0.380952 0
0.965517 0.428571 0
0.965517 0.47619 0
0.965517 0.52381 0
0.965517 0.571429 0
0.965517 0.619048 0
0.965517 0.666667 0
0.965517 0.714286 0
0.965517 0.761905 0
0.965517 0.809524 0
0.965517 0.857143 0
0.965517 0.904762 0
0.965517 0.952381 0
0.965517 1 0
1.01149 0 0
1.01149 0.047619 0
1.01149 0.0952381 0
1.01149 0.142857 0
1.01149 0.190476 0
1.01149 0.238095 0
1.01149 0.285714 0
1.01149 0.333333 0
1.01149 0.380952 0
1.01149 0.428571 0
1.01149 0.47619 0
1.01149 0.52381 0
1.01149 0.571429 0
1.01149 0.619048 0
1.01149 0.666667 0
1.01149 0.714286 0
1.01149 0.761905 0
1.01149 0.809524 0
1.01149 0.857143 0
1.01149 0.904762 0
1.01149 0.952381 0
1.01149 1 0
1.05747 0 0
1.05747 0.047619 0
1.05747 0.0952381 0
1.05747 0.142857 0
1.05747 0.190476 0
1.05747 0.238095 0
1.05747 0.285714 0
1.05747 0.333333 0
1.05747 0.380952 0
1.05747 0.428571 0
1.05747 0.47619 0
1.05747 0.52381 0
1.05747 0.571429 0
1.05747 0.619048 0
1.05747 0.666667 0
1.05747 0.714286 0
1.05747 0.761905 0
1.05747 0.809524 0
1.05747 0.857143 0
1.05747 0.904762 0
1.05747 0.952381 0
1.05747 1 0
1.10345 0 0
1.10345 0.047619 0
1.10345 0.0952381 0
1.10345 0.142857 0
1.10345 0.190476 0
1.10345 0.238095 0
1.10345 0.285714 0
1.10345 0.333333 0
1.10345 0.380952 0
1.10345 0.428571 0
1.10345 0.47619 0
1.10345 0.52381 0
1.10345 0.571429 0
[...]
POINT_DATA 1913
VECTORS velocity[m/s] double
-0 0.209792 0
0 0.209792 0
0 0.210178 0
0 0.182178 0
0 0.152255 0
0 0.123919 0
0 0.0973385 0
0 0.0721727 0
0 0.0479968 0
0 0.0243871 0
0 0.00093174 0
0 -0.0227843 0
0 -0.0472059 0
0 -0.0728436 0
0 -0.100321 0
0 -0.130442 0
0 -0.16428 0
0 -0.203299 0
0 -0.249064 0
0 -0.29838 0
0 -0.307189 0
-0.870473 0.185407 0
0.870476 0.00163529 0
1.07266 0.185407 0
1.10006 0.209503 0
1.10192 0.18558 0
1.10039 0.154615 0
1.09869 0.125261 0
1.09732 0.098144 0
1.09636 0.0726902 0
1.09581 0.0483306 0
1.09565 0.0245822 0
1.0959 0.00100829 0
1.09657 -0.022819 0
1.09773 -0.0473539 0
1.09949 -0.0731191 0
1.10203 -0.100763 0
1.1056 -0.131151 0
1.11059 -0.165499 0
1.11708 -0.205251 0
1.12049 -0.249588 0
1.08137 -0.282082 0
0.776261 -0.233337 0
-0.693048 0.144737 0
0.69305 0.0012966 0
1.0494 0.144737 0
1.12317 0.190443 0
1.13183 0.179721 0
1.12874 0.152745 0
1.12488 0.124259 0
1.1219 0.0974225 0
1.11989 0.0722115 0
1.11875 0.0481077 0
1.11842 0.0246233 0
1.11891 0.00132784 0
1.12026 -0.0221894 0
1.12261 -0.0463575 0
1.12619 -0.0716643 0
1.13137 -0.0987088 0
1.13877 -0.128259 0
1.14897 -0.161157 0
1.1599 -0.197166 0
1.15187 -0.229586 0
1.03431 -0.23085 0
0.550977 -0.14515 0
-0.554563 0.105521 0
0.554565 0.000944626 0
1.00528 0.105521 0
1.13353 0.162141 0
1.15788 0.165601 0
1.15625 0.146016 0
1.1508 0.120551 0
1.14625 0.095082 0
1.14317 0.0707374 0
1.14143 0.0473424 0
1.14092 0.0245118 0
1.14162 0.00186862 0
1.1436 -0.0209483 0
1.14705 -0.0443099 0
1.15231 -0.0686254 0
1.15991 -0.0943664 0
1.17054 -0.122016 0
1.18375 -0.151581 0
1.19121 -0.180426 0
1.1531 -0.197081 0
0.951576 -0.173213 0
0.410839 -0.0829079 0
-0.453602 0.0737723 0
0.453604 0.000659791 0
0.950615 0.0737731 0
1.13019 0.132475 0
1.17679 0.146984 0
1.18084 0.135549 0
1.17539 0.11444 0
1.16976 0.0912581 0
1.16576 0.0683548 0
1.16348 0.0460809 0
1.16279 0.0242519 0
1.16366 0.0025896 0
1.16617 -0.0191905 0
1.17054 -0.041377 0
1.17717 -0.064271 0
1.18661 -0.088163 0
1.19909 -0.113142 0
1.2116 -0.138244 0
1.20729 -0.158824 0
1.13006 -0.161615 0
0.864392 -0.124658 0
0.330796 -0.0471876 0
-0.38302 0.0503807 0
0.383021 0.000450224 0
0.893944 0.0503817 0
1.11619 0.10564 0
1.18784 0.127198 0
1.20123 0.123009 0
1.19778 0.10665 0
1.19188 0.086295 0
1.18727 0.0652484 0
1.18456 0.0444146 0
1.18371 0.0238621 0
1.18469 0.00344099 0
1.18759 -0.0170408 0
1.19265 -0.037779 0
1.20024 -0.0589548 0
1.21074 -0.0806605 0
1.22334 -0.102576 0
1.23148 -0.122898 0
1.20999 -0.135831 0
1.09439 -0.128838 0
0.789599 -0.0884307 0
0.285242 -0.0280056 0
-0.334821 0.03423 0
0.33482 0.000305676 0
0.840597 0.0342311 0
1.09538 0.0832398 0
1.19189 0.108362 0
1.21703 0.109847 0
1.21744 0.0979679 0
1.21221 0.0806109 0
1.2074 0.0616467 0
1.20441 0.0424568 0
1.20343 0.0233687 0
1.20447 0.00437032 0
1.20762 -0.0146351 0
1.2131 -0.0337515 0
1.2212 -0.0530449 0
1.2319 -0.0724199 0
1.24296 -0.0912001 0
1.24397 -0.106996 0
1.20325 -0.113705 0
1.05538 -0.100946 0
0.731265 -0.0627225 0
0.258209 -0.0175662 0
-0.302075 0.0235621 0
0.302074 0.000210267 0
0.793285 0.0235633 0
1.07113 0.0654106 0
1.19046 0.0915249 0
1.2285 0.0970466 0
1.23421 0.0890416 0
1.23053 0.0745856 0
1.22593 0.0577661 0
1.22285 0.0403168 0
1.22178 0.022797 0
1.22283 0.00532628 0
1.22609 -0.0121031 0
1.23173 -0.0295135 0
1.23992 -0.0468697 0
1.25004 -0.0639152 0
1.25822 -0.0796999 0
1.25046 -0.0915213 0
1.19094 -0.0935899 0
1.01848 -0.078175 0
0.687672 -0.0446968 0
0.241255 -0.0115377 0
-0.279538 0.0166793 0
0.279535 0.000148745 0
0.752887 0.0166807 0
1.04592 0.051596 0
1.18514 0.0770106 0
1.23624 0.0851509 0
1.24817 0.0803074 0
1.24677 0.0685039 0
1.24278 0.0537766 0
1.23977 0.0380806 0
1.23866 0.0221634 0
1.23967 0.00626054 0
1.2429 -0.0095591 0
1.2485 -0.0252496 0
1.25638 -0.0406924 0
1.26529 -0.0555024 0
1.26964 -0.0685451 0
1.25246 -0.0770388 0
1.17606 -0.0758895 0
0.986163 -0.0599228 0
0.655663 -0.03193 0
0.230122 -0.00777555 0
-0.263587 0.0122467 0
0.263583 0.000109145 0
0.719182 0.0122484 0
1.02139 0.0410188 0
1.17729 0.064738 0
1.24092 0.0743767 0
1.25957 0.0720082 0
1.261 0.0625448 0
1.25795 0.0497902 0
1.25514 0.035804 0
1.25402 0.0214732 0
1.25495 0.00712881 0
1.25806 -0.00709681 0
1.26341 -0.0211035 0
1.27069 -0.0347065 0
1.27789 -0.0474251 0
1.27785 -0.0580227 0
1.25136 -0.063817 0
1.16065 -0.0605936 0
0.959142 -0.045361 0
0.632349 -0.0226844 0
0.222622 -0.00524359 0
-0.251877 0.0093357 0
0.251872 8.31559e-05 0
0.69141 0.00933768 0
0.998497 0.0329176 0
1.16799 0.0544329 0
1.24321 0.064735 0
1.26872 0.06424 0
1.27332 0.0567973 0
1.27146 0.0458653 0
1.26899 0.0335132 0
1.26788 0.0207199 0
1.26869 0.00789128 0
1.27159 -0.00478952 0
1.27656 -0.01718 0
1.28298 -0.0290446 0
1.28813 -0.0398367 0
1.28345 -0.048288 0
1.24825 -0.0519394 0
1.14595 -0.0475032 0
0.937255 -0.0337097 0
0.615516 -0.0158072 0
0.217566 -0.00342952 0
-0.242954 0.00734335 0
0.242946 6.53812e-05 0
0.66865 0.00734599 0
0.97773 0.0266336 0
1.15805 0.0457464 0
1.2437 0.056115 0
1.27591 0.0569962 0
1.28388 0.0512797 0
1.28339 0.0420159 0
1.28135 0.0312091 0
1.28027 0.0198874 0
1.28094 0.00851274 0
1.28356 -0.00269198 0
1.28802 -0.0135511 0
1.2934 -0.023791 0
1.2963 -0.032825 0
1.28699 -0.0394101 0
1.24398 -0.0413887 0
1.13264 -0.0363612 0
0.919977 -0.0243359 0
0.603573 -0.0105656 0
0.214263 -0.00207034 0
-0.235936 0.00588741 0
0.235926 5.24038e-05 0
0.650034 0.00589135 0
0.959282 0.021624 0
1.14804 0.0383129 0
1.24286 0.048337 0
1.28144 0.0502013 0
1.29283 0.045958 0
1.29383 0.0382207 0
1.29228 0.028872 0
1.29126 0.0189524 0
1.29177 0.00896252 0
1.29405 -0.000843039 0
1.29791 -0.0102622 0
1.30213 -0.0189932 0
1.30266 -0.0264323 0
1.2889 -0.0314062 0
1.23913 -0.0321016 0
1.12104 -0.0269214 0
0.906689 -0.0167676 0
0.595379 -0.00650775 0
0.212272 -0.0010275 0
-0.230313 0.00472732 0
0.230299 4.2074e-05 0
0.63485 0.00473329 0
0.943176 0.0174606 0
1.13837 0.0317884 0
1.24106 0.0411941 0
1.28554 0.0437407 0
1.30031 0.0407648 0
1.30286 0.0344349 0
1.30187 0.0264686 0
1.30091 0.0178872 0
1.30124 0.00921492 0
1.30315 0.000731785 0
1.30635 -0.00733806 0
1.30932 -0.0146731 0
1.30747 -0.0206722 0
1.28958 -0.0242664 0
1.23414 -0.024003 0
1.11124 -0.0189788 0
0.896791 -0.0106731 0
0.590095 -0.00336053 0
0.211288 -0.00022723 0
-0.225799 0.00371918 0
0.225779 3.31054e-05 0
0.622569 0.00372762 0
0.929349 0.013835 0
1.1293 0.0258923 0
1.23861 0.0344987 0
1.28842 0.0374992 0
1.30643 0.0356263 0
1.31056 0.0306076 0
1.31016 0.0239628 0
1.30929 0.016666 0
1.30944 0.00925097 0
1.31095 0.00201841 0
1.31344 -0.00478847 0
1.31512 -0.0108357 0
1.31095 -0.0155428 0
1.28934 -0.0179709 0
1.2293 -0.0170251 0
1.10323 -0.0123769 0
0.889739 -0.00582626 0
0.587079 -0.000957905 0
0.211077 0.000371121 0
-0.222251 0.00279199 0
0.222223 2.48619e-05 0
0.612817 0.00280279 0
0.917714 0.0105662 0
1.12099 0.0204483 0
1.23572 0.028131 0
1.29024 0.0314038 0
1.31128 0.0304957 0
1.31699 0.026706 0
1.31721 0.0213316 0
1.31646 0.0152736 0
1.31643 0.00906187 0
1.31753 0.00301305 0
1.31929 -0.00261343 0
1.31968 -0.0074785 0
1.3133 -0.0110383 0
1.28843 -0.0125027 0
1.22482 -0.0111154 0
1.09691 -0.00700002 0
0.885047 -0.00206996 0
0.585804 0.00080866 0
0.211444 0.000793277 0
-0.219591 0.00192991 0
0.219552 1.71988e-05 0
0.605329 0.00194234 0
0.908181 0.00759381 0
1.11358 0.0154045 0
1.23257 0.022074 0
1.29112 0.0254604 0
1.31495 0.0253841 0
1.32218 0.0227386 0
1.32307 0.0185803 0
1.32246 0.0137146 0
1.32228 0.00865299 0
1.32297 0.00372183 0
1.32399 -0.000806942 0
1.32312 -0.00459705 0
1.31473 -0.00715595 0
1.2871 -0.00785209 0
1.22085 -0.0062352 0
1.09216 -0.00275789 0
0.882276 0.000716878 0
0.585828 0.00202293 0
0.212218 0.00106053 0
-0.217756 0.00115227 0
0.217705 1.0285e-05 0
0.59988 0.00116513 0
0.900647 0.00494713 0
1.10715 0.0108197 0
1.22931 0.016416 0
1.2912 0.0197647 0
1.31751 0.020375 0
1.3262 0.0187687 0
1.32777 0.0157538 0
1.32736 0.0120203 0
1.32704 0.00804663 0
1.32735 0.00416067 0
1.32766 0.000640877 0
1.3256 -0.00218808 0
1.31541 -0.00389687 0
1.28555 -0.0040137 0
1.2175 -0.00234944 0
1.08882 0.000433536 0
0.881024 0.00264511 0
0.586766 0.00276322 0
0.213251 0.00119502 0
-0.216665 0.000491836 0
0.216603 4.41086e-06 0
0.596237 0.000503839 0
0.894985 0.00269807 0
1.10176 0.0068156 0
1.22608 0.0113159 0
1.29062 0.0144819 0
1.31907 0.0156136 0
1.32912 0.0149095 0
1.33139 0.0129339 0
1.3312 0.0102477 0
1.3308 0.00728179 0
1.33076 0.00435494 0
1.3304 0.00174397 0
1.32726 -0.00024742 0
1.31553 -0.00126131 0
1.28395 -0.000977112 0
1.21482 0.000587486 0
1.08669 0.00266911 0
0.880919 0.00383131 0
0.588289 0.00311109 0
0.214414 0.00122136 0
-0.216207 -2.38093e-05 0
0.216133 -1.78772e-07 0
0.594127 -1.37354e-05 0
0.891018 0.000913013 0
1.09742 0.00351556 0
1.22303 0.00694655 0
1.28954 0.00980125 0
1.31976 0.0112737 0
1.33104 0.0113027 0
1.33399 0.0102269 0
1.33407 0.00847263 0
1.33364 0.00641025 0
1.33329 0.00433838 0
1.33233 0.00252204 0
1.32824 0.00123506 0
1.31526 0.000760578 0
1.28245 0.00128549 0
1.21282 0.00264441 0
1.08558 0.00406468 0
0.881623 0.00440342 0
0.590122 0.00315213 0
0.215602 0.00116586 0
-0.216243 -0.000383658 0
0.21616 -3.38513e-06 0
0.593241 -0.000376136 0
0.888514 -0.000380715 0
1.09411 0.000992726 0
1.22028 0.00343634 0
1.28812 0.00588293 0
1.31974 0.00751601 0
1.33208 0.00808748 0
1.33569 0.00774254 0
1.33607 0.006776 0
1.33565 0.00548977 0
1.33505 0.00415095 0
1.33358 0.00300263 0
1.32871 0.00228142 0
1.31476 0.00219761 0
1.28114 0.00282877 0
1.21146 0.00391989 0
1.08526 0.00475825 0
0.88284 0.00449776 0
0.592048 0.00297201 0
0.216736 0.00105466 0
-0.216623 -0.000596025 0
0.216533 -5.28092e-06 0
0.593254 -0.000591183 0
0.887197 -0.00120691 0
1.09176 -0.000756903 0
1.21793 0.000831023 0
1.28655 0.00281679 0
1.31919 0.00444992 0
1.33243 0.0053706 0
1.33663 0.00557203 0
1.33732 0.00523049 0
1.33695 0.00457616 0
1.33617 0.00383593 0
1.33428 0.00322217 0
1.3288 0.0029297 0
1.31416 0.00310258 0
1.2801 0.00373713 0
1.21066 0.00453999 0
1.08552 0.00490277 0
0.884321 0.00425047 0
0.593908 0.00265057 0
0.217763 0.000911579 0
-0.217207 -0.000684636 0
0.217111 -6.07593e-06 0
0.593857 -0.000682196 0
0.886771 -0.00163337 0
1.09024 -0.00181265 0
1.21602 -0.00091543 0
1.28498 0.00060451 0
1.31831 0.00211314 0
1.33224 0.00320683 0
1.33697 0.00377293 0
1.33796 0.0038891 0
1.33767 0.00371643 0
1.33677 0.00343656 0
1.33457 0.00322516 0
1.32864 0.00323405 0
1.31356 0.00355129 0
1.27933 0.00411984 0
1.21032 0.00464848 0
1.08616 0.00465372 0
0.885874 0.00378736 0
0.595595 0.00225641 0
0.218651 0.00075647 0
-0.217875 -0.000681423 0
0.217777 -6.05327e-06 0
0.594784 -0.000680862 0
0.886952 -0.00175373 0
1.08938 -0.0023066 0
1.21456 -0.00192408 0
1.28354 -0.000833307 0
1.31727 0.000470694 0
1.3317 0.00159402 0
1.33686 0.00236262 0
1.33814 0.00277954 0
1.33795 0.0029444 0
1.33698 0.00299281 0
1.33457 0.00306139 0
1.32834 0.00326102 0
1.31302 0.00363584 0
1.27883 0.00410024 0
1.21032 0.00439267 0
1.087 0.00415558 0
0.88736 0.0032152 0
0.597051 0.00184347 0
0.219389 0.000604338 0
-0.218539 -0.000619266 0
0.218441 -5.50493e-06 0
0.595829 -0.000619982 0
0.887494 -0.00166718 0
1.08902 -0.00239279 0
1.21352 -0.00235925 0
1.28229 -0.00163238 0
1.31619 -0.000569381 0
1.33097 0.000481171 0
1.33647 0.00132147 0
1.33798 0.00190442 0
1.33791 0.00227928 0
1.33692 0.00253878 0
1.33439 0.0027818 0
1.32799 0.00308291 0
1.31257 0.00345467 0
1.27855 0.00380232 0
1.21056 0.00390919 0
1.08792 0.00353095 0
0.888692 0.00261657 0
0.598255 0.00144991 0
0.21998 0.000465248 0
-0.219144 -0.0005267 0
0.219046 -4.68464e-06 0
0.596848 -0.000528139 0
0.888203 -0.0014624 0
1.089 -0.00221926 0
1.21282 -0.00239469 0
1.28127 -0.0019532 0
1.31518 -0.0011316 0
1.33016 -0.000215141 0
1.33591 0.000602491 0
1.33763 0.001246 0
1.33766 0.00172692 0
1.33669 0.00210121 0
1.3341 0.00243414 0
1.32764 0.0027704 0
1.31225 0.00310201 0
1.27846 0.00333861 0
1.21093 0.00331317 0
1.08881 0.00287435 0
0.889826 0.0020488 0
0.599213 0.00109927 0
0.220437 0.000344863 0
-0.21966 -0.000425224 0
0.219563 -3.78381e-06 0
0.597758 -0.000426949 0
0.888942 -0.0012086 0
1.08917 -0.00190934 0
1.2124 -0.00218687 0
1.28048 -0.00195257 0
1.3143 -0.00134826 0
1.32938 -0.000592096 0
1.3353 0.000143781 0
1.33717 0.000773352 0
1.33731 0.00128273 0
1.33638 0.00169885 0
1.33379 0.00205935 0
1.32732 0.00238604 0
1.31202 0.00265949 0
1.27849 0.00280158 0
1.21136 0.00269239 0
1.08961 0.00225094 0
0.89075 0.00154623 0
0.599949 0.000802945 0
0.220777 0.000245325 0
-0.220078 -0.00032887 0
0.219983 -2.92758e-06 0
0.59852 -0.000330584 0
0.889626 -0.000953019 0
1.08945 -0.00155347 0
1.21219 -0.0018597 0
1.2799 -0.00176407 0
1.31358 -0.00134007 0
1.32868 -0.00074454 0
1.3347 -0.000119773 0
1.33669 0.000449745 0
1.33692 0.000935353 0
1.33604 0.001343 0
1.33348 0.00168938 0
1.32707 0.00198017 0
1.31189 0.00219118 0
1.2786 0.00225989 0
1.21179 0.00210659 0
1.0903 0.00169944 0
0.891475 0.00112462 0
0.600494 0.000563349 0
0.221021 0.000166271 0
-0.220403 -0.000245233 0
0.22031 -2.18381e-06 0
0.599128 -0.000246763 0
0.890213 -0.000723205 0
1.08975 -0.00120969 0
1.2121 -0.00150008 0
1.2795 -0.00148891 0
1.31301 -0.00120484 0
1.32808 -0.000754146 0
1.33416 -0.00024777 0
1.33623 0.000238669 0
1.33653 0.000670013 0
1.33571 0.00103857 0
1.3332 0.0013465 0
1.32687 0.00158918 0
1.31184 0.00174218 0
1.27876 0.00175869 0
1.21219 0.00159057 0
1.09086 0.00123736 0
0.892023 0.000786322 0
0.600884 0.000377007 0
0.221188 0.000105774 0
-0.220648 -0.000177142 0
0.220557 -1.57795e-06 0
0.599595 -0.000178413 0
0.890689 -0.00053156 0
1.09004 -0.00090919 0
1.2121 -0.00116121 0
1.27924 -0.00119533 0
1.31259 -0.00101374 0
1.3276 -0.000684268 0
1.33369 -0.000289281 0
1.33582 0.000107855 0
1.33618 0.000471251 0
1.33542 0.000785586 0
1.33298 0.00104399 0
1.32673 0.00123618 0
1.31183 0.00134011 0
1.27893 0.00132291 0
1.21254 0.00115946 0
1.0913 0.000867105 0
0.892425 0.000525205 0
0.601153 0.000237184 0
0.221297 6.11163e-05 0
-0.220828 -0.000124369 0
0.220737 -1.10818e-06 0
0.599943 -0.000125371 0
0.891061 -0.000380359 0
1.09029 -0.000663837 0
1.21214 -0.000869892 0
1.27907 -0.000923417 0
1.31227 -0.000813079 0
1.32722 -0.000579454 0
1.33332 -0.000281177 0
1.33547 3.12381e-05 0
1.33588 0.000324698 0
1.33518 0.000580718 0
1.3328 0.000787708 0
1.32663 0.000933067 0
1.31185 0.000998358 0
1.27909 0.000962043 0
1.21283 0.000814598 0
1.09164 0.000581664 0
0.89271 0.000330686 0
0.601329 0.000135856 0
0.221362 2.93504e-05 0
-0.220957 -8.50476e-05 0
0.220867 -7.58021e-07 0
0.600195 -8.58075e-05 0
0.891341 -0.000266084 0
1.09049 -0.000473388 0
1.21219 -0.000634792 0
1.27897 -0.000692226 0
1.31206 -0.000629107 0
1.32694 -0.000467895 0
1.33302 -0.000248855 0
1.3352 -1.07061e-05 0
1.33564 0.00021802 0
1.33498 0.000418666 0
1.33266 0.000577976 0
1.32658 0.000683241 0
1.31189 0.000719929 0
1.27924 0.000675078 0
1.21306 0.000548874 0
1.09189 0.000369173 0
0.892904 0.000190655 0
0.601438 6.50296e-05 0
0.221397 7.66688e-06 0
-0.221048 -5.66773e-05 0
0.220959 -5.053e-07 0
0.600376 -5.72363e-05 0
0.891548 -0.000182621 0
1.09066 -0.000331229 0
1.21226 -0.000453749 0
1.27891 -0.000506937 0
1.31191 -0.000473697 0
1.32674 -0.000365198 0
1.3328 -0.000208253 0
1.33498 -3.16369e-05 0
1.33546 0.000141225 0
1.33484 0.000293263 0
1.33257 0.000411514 0
1.32655 0.000484443 0
1.31194 0.000501157 0
1.27937 0.000454791 0
1.21324 0.000350961 0
1.09206 0.000216203 0
0.893032 9.33534e-05 0
0.6015 1.74964e-05 0
0.221411 -6.40641e-06 0
-0.221111 -3.67414e-05 0
0.221023 -3.27663e-07 0
0.600503 -3.71439e-05 0
0.891697 -0.00012331 0
1.09078 -0.000228324 0
1.21231 -0.000319249 0
1.27889 -0.000364753 0
1.31181 -0.00034956 0
1.32659 -0.000278275 0
1.33263 -0.000168302 0
1.33482 -4.05128e-05 0
1.33531 8.65569e-05 0
1.33473 0.000198273 0
1.3325 0.000283055 0
1.32654 0.00033114 0
1.31199 0.000334743 0
1.27947 0.000291074 0
1.21338 0.000208274 0
1.09219 0.000109812 0
0.893111 2.83852e-05 0
0.601529 -1.28198e-05 0
0.22141 -1.49219e-05 0
-0.221155 -2.30272e-05 0
0.221067 -2.05437e-07 0
0.600592 -2.33133e-05 0
0.891805 -8.2059e-05 0
1.09087 -0.00015559 0
1.21236 -0.000222045 0
1.27888 -0.000259156 0
1.31174 -0.000254326 0
1.32649 -0.000208649 0
1.33252 -0.000133199 0
1.3347 -4.28395e-05 0
1.33521 4.81796e-05 0
1.33465 0.00012789 0
1.33246 0.000186561 0
1.32654 0.000216358 0
1.31204 0.000211978 0
1.27956 0.00017318 0
1.21348 0.000108802 0
1.09227 3.86305e-05 0
0.893156 -1.28679e-05 0
0.601537 -3.07908e-05 0
0.221402 -1.95077e-05 0
-0.221186 -1.37448e-05 0
0.221098 -1.22694e-07 0
0.600655 -1.39473e-05 0
0.891881 -5.38212e-05 0
1.09094 -0.000105081 0
1.21241 -0.000153218 0
1.27888 -0.000182605 0
1.31171 -0.000183367 0
1.32642 -0.000154933 0
1.33244 -0.000104253 0
1.33462 -4.17743e-05 0
1.33514 2.17923e-05 0
1.3346 7.7006e-05 0
1.33244 0.000116058 0
1.32655 0.000132924 0
1.31208 0.000124187 0
1.27963 9.10687e-05 0
1.21355 4.20555e-05 0
1.09233 -6.7182e-06 0
0.893179 -3.72176e-05 0
0.601532 -4.017e-05 0
0.221389 -2.14076e-05 0
-0.221207 -7.52827e-06 0
0.22112 -6.72746e-08 0
0.600699 -7.67227e-06 0
0.891936 -3.46819e-05 0
1.091 -7.04006e-05 0
1.21244 -0.000105145 0
1.27888 -0.000128017 0
1.31168 -0.000131529 0
1.32638 -0.000114481 0
1.33238 -8.1206e-05 0
1.33457 -3.89885e-05 0
1.33509 4.26377e-06 0
1.33457 4.13132e-05 0
1.33243 6.61158e-05 0
1.32656 7.42073e-05 0
1.31212 6.3544e-05 0
1.27968 3.60749e-05 0
1.2136 -5.93914e-07 0
1.09236 -3.3614e-05 0
0.893188 -4.98465e-05 0
0.601519 -4.37527e-05 0
0.221373 -2.154e-05 0
-0.221223 -3.3808e-06 0
0.221135 -3.02986e-08 0
0.60073 -3.48466e-06 0
0.891976 -2.17472e-05 0
1.09104 -4.66924e-05 0
1.21247 -7.17849e-05 0
1.27889 -8.94236e-05 0
1.31167 -9.40572e-05 0
1.32635 -8.4382e-05 0
1.33235 -6.31037e-05 0
1.33453 -3.52818e-05 0
1.33506 -6.6759e-06 0
1.33455 1.72915e-05 0
1.33243 3.20794e-05 0
1.32658 3.44891e-05 0
1.31215 2.34322e-05 0
1.27972 1.11874e-06 0
1.21364 -2.59282e-05 0
1.09239 -4.76542e-05 0
0.893187 -5.45726e-05 0
0.601503 -4.35582e-05 0
0.221358 -2.05618e-05 0
-0.221234 -6.00495e-07 0
0.221147 -5.5125e-09 0
0.600753 -6.77072e-07 0
0.892006 -1.29561e-05 0
1.09107 -3.04215e-05 0
1.21249 -4.85918e-05 0
1.2789 -6.21363e-05 0
1.31167 -6.6988e-05 0
1.32634 -6.19742e-05 0
1.33232 -4.88016e-05 0
1.33451 -3.09839e-05 0
1.33505 -1.26747e-05 0
1.33454 2.13808e-06 0
1.33243 1.01259e-05 0
1.3266 9.06976e-06 0
1.31218 -1.48505e-06 0
1.27975 -1.93478e-05 0
1.21367 -3.90918e-05 0
1.0924 -5.2953e-05 0
0.893182 -5.41279e-05 0
0.601486 -4.10026e-05 0
0.221343 -1.89279e-05 0
-0.221242 1.2921e-06 0
0.221155 1.1357e-08 0
0.60077 1.23404e-06 0
0.892028 -6.885e-06 0
1.09109 -1.91004e-05 0
1.21251 -3.2281e-05 0
1.27891 -4.2646e-05 0
1.31167 -4.72266e-05 0
1.32633 -4.50561e-05 0
1.33231 -3.72304e-05 0
1.33449 -2.61983e-05 0
1.33504 -1.49352e-05 0
1.33454 -6.33229e-06 0
1.33244 -2.77943e-06 0
1.32661 -5.76787e-06 0
1.3122 -1.53565e-05 0
1.27978 -2.95283e-05 0
1.21368 -4.38705e-05 0
1.0924 -5.24496e-05 0
0.893174 -5.04119e-05 0
0.60147 -3.70477e-05 0
0.22133 -1.69418e-05 0
-0.221248 2.61562e-06 0
0.221161 2.31508e-08 0
0.600783 2.57027e-06 0
0.892045 -2.57612e-06 0
1.09111 -1.10264e-05 0
1.21252 -2.05513e-05 0
1.27892 -2.84247e-05 0
1.31167 -3.24694e-05 0
1.32633 -3.19229e-05 0
1.33231 -2.75059e-05 0
1.33449 -2.09365e-05 0
1.33503 -1.434e-05 0
1.33454 -9.79128e-06 0
1.33244 -8.97865e-06 0
1.32663 -1.28734e-05 0
1.31222 -2.13086e-05 0
1.27979 -3.25162e-05 0
1.2137 -4.29726e-05 0
1.09241 -4.8185e-05 0
0.893166 -4.47039e-05 0
0.601455 -3.23226e-05 0
0.221319 -1.47965e-05 0
-0.221253 3.57622e-06 0
0.221166 3.17074e-08 0
0.600793 3.5398e-06 0
0.892058 5.99381e-07 0
1.09112 -5.06266e-06 0
1.21254 -1.18336e-05 0
1.27893 -1.77063e-05 0
1.31168 -2.10644e-05 0
1.32633 -2.13168e-05 0
1.3323 -1.89511e-05 0
1.33449 -1.51848e-05 0
1.33503 -1.15387e-05 0
1.33454 -9.49493e-06 0
1.33245 -1.02341e-05 0
1.32664 -1.43715e-05 0
1.31223 -2.16324e-05 0
1.27981 -3.05242e-05 0
1.21371 -3.82805e-05 0
1.09241 -4.15309e-05 0
0.893159 -3.78318e-05 0
0.601443 -2.72174e-05 0
0.221309 -1.26066e-05 0
-0.221257 4.30331e-06 0
0.221169 3.81814e-08 0
0.6008 4.27341e-06 0
0.892068 3.04366e-06 0
1.09113 -4.68069e-07 0
1.21255 -5.08405e-06 0
1.27894 -9.29062e-06 0