# vtk DataFile Version 3.0
vtk output
ASCII
DATASET UNSTRUCTURED_GRID
POINTS 1913 double
0.045977 0 0
0.045977 0.0952381 0
0.045977 0.142857 0
0.045977 0.190476 0
0.045977 0.238095 0
0.045977 0.285714 0
0.045977 0.333333 0
0.045977 0.380952 0
0.045977 0.428571 0
0.045977 0.47619 0
0.045977 0.52381 0
0.045977 0.571429 0
0.045977 0.619048 0
0.045977 0.666667 0
0.045977 0.714286 0
0.045977 0.761905 0
0.045977 0.809524 0
0.045977 0.857143 0
0.045977 0.904762 0
0.045977 0.952381 0
0.045977 1 0
0.091954 0 0
0.091954 0.047619 0
0.091954 0.0952381 0
0.091954 0.142857 0
0.091954 0.190476 0
0.091954 0.238095 0
0.091954 0.285714 0
0.091954 0.333333 0
0.091954 0.380952 0
0.091954 0.428571 0
0.091954 0.47619 0
0.091954 0.52381 0
0.091954 0.571429 0
0.091954 0.619048 0
0.091954 0.666667 0
0.091954 0.714286 0
0.091954 0.761905 0
0.091954 0.809524 0
0.091954 0.857143 0
0.091954 0.904762 0
0.091954 0.952381 0
0.091954 1 0
0.137931 0 0
0.137931 0.047619 0
0.137931 0.0952381 0
0.137931 0.142857 0
0.137931 0.190476 0
0.137931 0.238095 0
0.137931 0.285714 0
0.137931 0.333333 0
0.137931 0.380952 0
0.137931 0.428571 0
0.137931 0.47619 0
0.137931 0.52381 0
0.137931 0.571429 0
0.137931 0.619048 0
0.137931 0.666667 0
0.137931 0.714286 0
0.137931 0.761905 0
0.137931 0.809524 0
0.137931 0.857143 0
0.137931 0.904762 0
0.137931 0.952381 0
0.137931 1 0
0.183908 0 0
0.183908 0.047619 0
0.183908 0.0952381 0
0.183908 0.142857 0
0.183908 0.190476 0
0.183908 0.238095 0
0.183908 0.285714 0
0.183908 0.333333 0
0.183908 0.380952 0
0.183908 0.428571 0
0.183908 0.47619 0
0.183908 0.52381 0
0.183908 0.571429 0
0.183908 0.619048 0
0.183908 0.666667 0
0.183908 0.714286 0
0.183908 0.761905 0
0.183908 0.809524 0
0.183908 0.857143 0
0.183908 0.904762 0
0.183908 0.952381 0
0.183908 1 0
0.229885 0 0
0.229885 0.047619 0
0.229885 0.0952381 0
0.229885 0.142857 0
0.229885 0.190476 0
0.229885 0.238095 0
0.229885 0.285714 0
0.229885 0.333333 0
0.229885 0.380952 0
0.229885 0.428571 0
0.229885 0.47619 0
0.229885 0.52381 0
0.229885 0.571429 0
0.229885 0.619048 0
0.229885 0.666667 0
0.229885 0.714286 0
0.229885 0.761905 0
0.229885 0.809524 0
0.229885 0.857143 0
0.229885 0.904762 0
0.229885 0.952381 0
0.229885 1 0
0.275862 0 0
0.275862 0.047619 0
0.275862 0.0952381 0
0.275862 0.142857 0
0.275862 0.190476 0
0.275862 0.238095 0
0.275862 0.285714 0
0.275862 0.333333 0
0.275862 0.380952 0
0.275862 0.428571 0
0.275862 0.47619 0
0.275862 0.52381 0
0.275862 0.571429 0
0.275862 0.619048 0
0.275862 0.666667 0
0.275862 0.714286 0
0.275862 0.761905 0
0.275862 0.809524 0
0.275862 0.857143 0
0.275862 0.904762 0
0.275862 0.952381 0
0.275862 1 0
0.321839 0 0
0.321839 0.047619 0
0.321839 0.0952381 0
0.321839 0.142857 0
0.321839 0.190476 0
0.321839 0.238095 0
0.321839 0.285714 0
0.321839 0.333333 0
0.321839 0.380952 0
0.321839 0.428571 0
0.321839 0.47619 0
0.321839 0.52381 0
0.321839 0.571429 0
0.321839 0.619048 0
0.321839 0.666667 0
0.321839 0.714286 0
0.321839 0.761905 0
0.321839 0.809524 0
0.321839 0.857143 0
0.321839 0.904762 0
0.321839 0.952381 0
0.321839 1 0
0.367816 0 0
0.367816 0.047619 0
0.367816 0.0952381 0
0.367816 0.142857 0
0.367816 0.190476 0
0.367816 0.238095 0
0.367816 0.285714 0
0.367816 0.333333 0
0.367816 0.380952 0
0.367816 0.428571 0
0.367816 0.47619 0
0.367816 0.52381 0
0.367816 0.571429 0
0.367816 0.619048 0
0.367816 0.666667 0
0.367816 0.714286 0
0.367816 0.761905 0
0.367816 0.809524 0
0.367816 0.857143 0
0.367816 0.904762 0
0.367816 0.952381 0
0.367816 1 0
0.413793 0 0
0.413793 0.047619 0
0.413793 0.0952381 0
0.413793 0.142857 0
0.413793 0.190476 0
0.413793 0.238095 0
0.413793 0.285714 0
0.413793 0.333333 0
0.413793 0.380952 0
0.413793 0.428571 0
0.413793 0.47619 0
0.413793 0.52381 0
0.413793 0.571429 0
0.413793 0.619048 0
0.413793 0.666667 0
0.413793 0.714286 0
0.413793 0.761905 0
0.413793 0.809524 0
0.413793 0.857143 0
0.413793 0.904762 0
0.413793 0.952381 0
0.413793 1 0
0.45977 0 0
0.45977 0.047619 0
0.45977 0.0952381 0
0.45977 0.142857 0
0.45977 0.190476 0
0.45977 0.238095 0
0.45977 0.285714 0
0.45977 0.333333 0
0.45977 0.380952 0
0.45977 0.428571 0
0.45977 0.47619 0
0.45977 0.52381 0
0.45977 0.571429 0
0.45977 0.619048 0
0.45977 0.666667 0
0.45977 0.714286 0
0.45977 0.761905 0
0.45977 0.809524 0
0.45977 0.857143 0
0.45977 0.904762 0
0.45977 0.952381 0
0.45977 1 0
0.505747 0 0
0.505747 0.047619 0
0.505747 0.0952381 0
0.505747 0.142857 0
0.505747 0.190476 0
0.505747 0.238095 0
0.505747 0.285714 0
0.505747 0.333333 0
0.505747 0.380952 0
0.505747 0.428571 0
0.505747 0.47619 0
0.505747 0.52381 0
0.505747 0.571429 0
0.505747 0.619048 0
0.505747 0.666667 0
0.505747 0.714286 0
0.505747 0.761905 0
0.505747 0.809524 0
0.505747 0.857143 0
0.505747 0.904762 0
0.505747 0.952381 0
0.505747 1 0
0.551724 0 0
0.551724 0.047619 0
0.551724 0.0952381 0
0.551724 0.142857 0
0.551724 0.190476 0
0.551724 0.238095 0
0.551724 0.285714 0
0.551724 0.333333 0
0.551724 0.380952 0
0.551724 0.428571 0
0.551724 0.47619 0
0.551724 0.52381 0
0.551724 0.571429 0
0.551724 0.619048 0
0.551724 0.666667 0
0.551724 0.714286 0
0.551724 0.761905 0
0.551724 0.809524 0
0.551724 0.857143 0
0.551724 0.904762 0
0.551724 0.952381 0
0.551724 1 0
0.597701 0 0
0.597701 0.047619 0
0.597701 0.0952381 0
0.597701 0.142857 0
0.597701 0.190476 0
0.597701 0.238095 0
0.597701 0.285714 0
0.597701 0.333333 0
0.597701 0.380952 0
0.597701 0.428571 0
0.597701 0.47619 0
0.597701 0.52381 0
0.597701 0.571429 0
0.597701 0.619048 0
0.597701 0.666667 0
0.597701 0.714286 0
0.597701 0.761905 0
0.597701 0.809524 0
0.597701 0.857143 0
0.597701 0.904762 0
0.597701 0.952381 0
0.597701 1 0
0.643678 0 0
0.643678 0.047619 0
0.643678 0.0952381 0
0.643678 0.142857 0
0.643678 0.190476 0
0.643678 0.238095 0
0.643678 0.285714 0
0.643678 0.333333 0
0.643678 0.380952 0
0.643678 0.428571 0
0.643678 0.47619 0
0.643678 0.52381 0
0.643678 0.571429 0
0.643678 0.619048 0
0.643678 0.666667 0
0.643678 0.714286 0
0.643678 0.761905 0
0.643678 0.809524 0
0.643678 0.857143 0
0.643678 0.904762 0
0.643678 0.952381 0
0.643678 1 0
0.689655 0 0
0.689655 0.047619 0
0.689655 0.0952381 0
0.689655 0.142857 0
0.689655 0.190476 0
0.689655 0.238095 0
0.689655 0.285714 0
0.689655 0.333333 0
0.689655 0.380952 0
0.689655 0.428571 0
0.689655 0.47619 0
0.689655 0.52381 0
0.689655 0.571429 0
0.689655 0.619048 0
0.689655 0.666667 0
0.689655 0.714286 0
0.689655 0.761905 0
0.689655 0.809524 0
0.689655 0.857143 0
0.689655 0.904762 0
0.689655 0.952381 0
0.689655 1 0
0.735632 0 0
0.735632 0.047619 0
0.735632 0.0952381 0
0.735632 0.142857 0
0.735632 0.190476 0
0.735632 0.238095 0
0.735632 0.285714 0
0.735632 0.333333 0
0.735632 0.380952 0
0.735632 0.428571 0
0.735632 0.47619 0
0.735632 0.52381 0
0.735632 0.571429 0
0.735632 0.619048 0
0.735632 0.666667 0
0.735632 0.714286 0
0.735632 0.761905 0
0.735632 0.809524 0
0.735632 0.857143 0
0.735632 0.904762 0
0.735632 0.952381 0
0.735632 1 0
0.781609 0 0
0.781609 0.047619 0
0.781609 0.0952381 0
0.781609 0.142857 0
0.781609 0.190476 0
0.781609 0.238095 0
0.781609 0.285714 0
0.781609 0.333333 0
0.781609 0.380952 0
0.781609 0.428571 0
0.781609 0.47619 0
0.781609 0.52381 0
0.781609 0.571429 0
0.781609 0.619048 0
0.781609 0.666667 0
0.781609 0.714286 0
0.781609 0.761905 0
0.781609 0.809524 0
0.781609 0.857143 0
0.781609 0.904762 0
0.781609 0.952381 0
0.781609 1 0
0.827586 0 0
0.827586 0.047619 0
0.827586 0.0952381 0
0.827586 0.142857 0
0.827586 0.190476 0
0.827586 0.238095 0
0.827586 0.285714 0
0.827586 0.333333 0
0.827586 0.380952 0
0.827586 0.428571 0
0.827586 0.47619 0
0.827586 0.52381 0
0.827586 0.571429 0
0.827586 0.619048 0
0.827586 0.666667 0
0.827586 0.714286 0
0.827586 0.761905 0
0.827586 0.809524 0
0.827586 0.857143 0
0.827586 0.904762 0
0.827586 0.952381 0
0.827586 1 0
0.873563 0 0
0.873563 0.047619 0
0.873563 0.0952381 0
0.873563 0.142857 0
0.873563 0.190476 0
0.873563 0.238095 0
0.873563 0.285714 0
0.873563 0.333333 0
0.873563 0.380952 0
0.873563 0.428571 0
0.873563 0.47619 0
0.873563 0.52381 0
0.873563 0.571429 0
0.873563 0.619048 0
0.873563 0.666667 0
0.873563 0.714286 0
0.873563 0.761905 0
0.873563 0.809524 0
0.873563 0.857143 0
0.873563 0.904762 0
0.873563 0.952381 0
0.873563 1 0
0.91954 0 0
0.91954 0.047619 0
0.91954 0.0952381 0
0.91954 0.142857 0
0.91954 0.190476 0
0.91954 0.238095 0
0.91954 0.285714 0
0.91954 0.333333 0
0.91954 0.380952 0
0.91954 0.428571 0
0.91954 0.47619 0
0.91954 0.52381 0
0.91954 0.571429 0
0.91954 0.619048 0
0.91954 0.666667 0
0.91954 0.714286 0
0.91954 0.761905 0
0.91954 0.809524 0
0.91954 0.857143 0
0.91954 0.904762 0
0.91954 0.952381 0
0.91954 1 0
0.965517 0 0
0.965517 0.047619 0
0.965517 0.0952381 0
0.965517 0.142857 0
0.965517 0.190476 0
0.965517 0.238095 0
0.965517 0.285714 0
0.965517 0.333333 0
0.965517 0.380952 0
0.965517 0.428571 0
0.965517 0.47619 0
0.965517 0.52381 0
0.965517 0.571429 0
0.965517 0.619048 0
0.965517 0.666667 0
0.965517 0.714286 0
0.965517 0.761905 0
0.965517 0.809524 0
0.965517 0.857143 0
0.965517 0.904762 0
0.965517 0.952381 0
0.965517 1 0
1.01149 0 0
1.01149 0.047619 0
1.01149 0.0952381 0
1.01149 0.142857 0
1.01149 0.190476 0
1.01149 0.238095 0
1.01149 0.285714 0
1.01149 0.333333 0
1.01149 0.380952 0
1.01149 0.428571 0
1.01149 0.47619 0
1.01149 0.52381 0
1.01149 0.571429 0
1.01149 0.619048 0
1.01149 0.666667 0
1.01149 0.714286 0
1.01149 0.761905 0
1.01149 0.809524 0
1.01149 0.857143 0
1.01149 0.904762 0
1.01149 0.952381 0
1.01149 1 0
1.05747 0 0
1.05747 0.047619 0
1.05747 0.0952381 0
1.05747 0.142857 0
1.05747 0.190476 0
1.05747 0.238095 0
1.05747 0.285714 0
1.05747 0.333333 0
1.05747 0.380952 0
1.05747 0.428571 0
1.05747 0.47619 0
1.05747 0.52381 0
1.05747 0.571429 0
1.05747 0.619048 0
1.05747 0.666667 0
1.05747 0.714286 0
1.05747 0.761905 0
1.05747 0.809524 0
1.05747 0.857143 0
1.05747 0.904762 0
1.05747 0.952381 0
1.05747 1 0
1.10345 0 0
1.10345 0.047619 0
1.10345 0.0952381 0
1.10345 0.142857 0
1.10345 0.190476 0
1.10345 0.238095 0
1.10345 0.285714 0
1.10345 0.333333 0
1.10345 0.380952 0
1.10345 0.428571 0
1.10345 0.47619 0
1.10345 0.52381 0
1.10345 0.571429 0
[...]
POINT_DATA 1913
VECTORS velocity[m/s] double
-0 0.209577 0
0 0.209579 0
0 0.209854 0
0 0.181838 0
0 0.152001 0
0 0.123853 0
0 0.0975574 0
0 0.0727613 0
0 0.0490275 0
0 0.0259171 0
0 0.00300054 0
0 -0.0201569 0
0 -0.0440226 0
0 -0.0691326 0
0 -0.0961405 0
0 -0.125884 0
0 -0.159482 0
0 -0.198449 0
0 -0.24443 0
0 -0.29441 0
0 -0.304756 0
-0.869871 0.185154 0
0.869874 0.00163306 0
1.07196 0.185157 0
1.09928 0.209096 0
1.10104 0.185132 0
1.09942 0.154242 0
1.09763 0.125079 0
1.09619 0.0982595 0
1.09516 0.0731977 0
1.09455 0.0493105 0
1.09436 0.0260982 0
1.09458 0.00310583 0
1.09525 -0.0201149 0
1.09643 -0.0440411 0
1.09823 -0.0692211 0
1.10085 -0.0963334 0
1.10453 -0.12628 0
1.10968 -0.16032 0
1.11642 -0.19997 0
1.12025 -0.244584 0
1.08195 -0.278155 0
0.777692 -0.231658 0
-0.692695 0.144449 0
0.692695 0.00129403 0
1.04886 0.144452 0
1.12243 0.189902 0
1.13088 0.17907 0
1.12758 0.152145 0
1.12354 0.123853 0
1.12039 0.0973367 0
1.11823 0.0725543 0
1.11698 0.0489711 0
1.11657 0.026081 0
1.11701 0.00343416 0
1.11836 -0.019401 0
1.12075 -0.0428761 0
1.12442 -0.067504 0
1.12977 -0.0939129 0
1.13741 -0.122907 0
1.14798 -0.155385 0
1.15951 -0.191246 0
1.15267 -0.224137 0
1.03707 -0.227078 0
0.554034 -0.144106 0
-0.554492 0.105205 0
0.554489 0.000941811 0
1.00498 0.105208 0
1.1329 0.161425 0
1.15688 0.164655 0
1.15491 0.145066 0
1.14915 0.119795 0
1.14433 0.0946785 0
1.14101 0.0708164 0
1.13909 0.0480113 0
1.13844 0.0258573 0
1.13907 0.00395653 0
1.14103 -0.0180729 0
1.14454 -0.0406232 0
1.14993 -0.0641272 0
1.15778 -0.0890838 0
1.16878 -0.116017 0
1.18261 -0.145023 0
1.19127 -0.173708 0
1.15552 -0.191135 0
0.956966 -0.169542 0
0.414908 -0.0821609 0
-0.45384 0.0734276 0
0.453834 0.000656726 0
0.950715 0.0734307 0
1.12979 0.131542 0
1.17581 0.145639 0
1.17932 0.134106 0
1.17341 0.113181 0
1.16738 0.0903952 0
1.16304 0.0680498 0
1.16049 0.0464608 0
1.1596 0.0254178 0
1.16035 0.0046206 0
1.16282 -0.0162354 0
1.16724 -0.037458 0
1.17404 -0.0593685 0
1.18379 -0.0822837 0
1.1968 -0.106345 0
1.21032 -0.130731 0
1.20811 -0.15117 0
1.13468 -0.155074 0
0.87261 -0.120902 0
0.335592 -0.046447 0
-0.383594 0.0500008 0
0.383586 0.00044685 0
0.894617 0.0500042 0
1.11619 0.10444 0
1.18695 0.125339 0
1.19953 0.120909 0
1.19542 0.104707 0
1.18897 0.0848049 0
1.1839 0.0644169 0
1.18082 0.0443925 0
1.17969 0.0247658 0
1.1805 0.00536284 0
1.18332 -0.0140271 0
1.18841 -0.0336152 0
1.19617 -0.0535982 0
1.20703 -0.0740945 0
1.22036 -0.0948559 0
1.23006 -0.114291 0
1.21189 -0.127113 0
1.1017 -0.121563 0
0.800733 -0.084356 0
0.290758 -0.0270943 0
-0.335765 0.0338121 0
0.335753 0.000301967 0
0.84207 0.0338156 0
1.09602 0.0817251 0
1.19124 0.105871 0
1.21519 0.106914 0
1.21465 0.095146 0
1.20866 0.0783072 0
1.20324 0.0601287 0
1.19978 0.0419043 0
1.19844 0.0239132 0
1.19923 0.00611618 0
1.20224 -0.0115999 0
1.20771 -0.0293495 0
1.21597 -0.0472087 0
1.22709 -0.0651087 0
1.23913 -0.0824707 0
1.24246 -0.0971962 0
1.20654 -0.103817 0
1.06579 -0.0927833 0
0.745458 -0.0581044 0
0.264609 -0.0163787 0
-0.303426 0.0230983 0
0.303411 0.000206151 0
0.795823 0.0231022 0
1.07272 0.0635213 0
1.19025 0.088262 0
1.22656 0.0930866 0
1.23092 0.0851272 0
1.22623 0.0712667 0
1.22085 0.0553875 0
1.21716 0.039092 0
1.21563 0.0228721 0
1.21634 0.00681511 0
1.21939 -0.00910066 0
1.22497 -0.0249021 0
1.23327 -0.0405578 0
1.24387 -0.05584 0
1.25336 -0.0699257 0
1.24886 -0.0804828 0
1.1959 -0.0824678 0
1.03232 -0.0690023 0
0.705183 -0.0393708 0
0.248807 -0.0100147 0
-0.281339 0.0161208 0
0.28132 0.000143791 0
0.756808 0.0161264 0
1.04884 0.0492035 0
1.1856 0.072768 0
1.23426 0.0799108 0
1.24431 0.0750437 0
1.24157 0.0639373 0
1.23659 0.0503421 0
1.23283 0.0360269 0
1.23115 0.0216466 0
1.23172 0.00739857 0
1.23466 -0.0066594 0
1.2401 -0.0204789 0
1.24804 -0.0339386 0
1.25748 -0.0466859 0
1.26357 -0.0577454 0
1.25079 -0.0647833 0
1.18291 -0.063543 0
1.00372 -0.0497086 0
0.676851 -0.0258469 0
0.23915 -0.00591007 0
-0.265929 0.0114727 0
0.265905 0.000102285 0
0.724882 0.0114819 0
1.0261 0.0378696 0
1.17871 0.0591812 0
1.23897 0.0674997 0
1.25505 0.0650624 0
1.25471 0.0564479 0
1.25043 0.0450741 0
1.24673 0.032747 0
1.24491 0.020231 0
1.24531 0.00781259 0
1.24801 -0.00438235 0
1.2531 -0.0162424 0
1.26036 -0.0275732 0
1.26817 -0.0379322 0
1.27037 -0.0462782 0
1.2496 -0.0504511 0
1.16957 -0.0471488 0
0.980695 -0.0342269 0
0.657615 -0.0159532 0
0.233457 -0.00309375 0
-0.254967 0.00817123 0
0.254934 7.28375e-05 0
0.699416 0.00818522 0
1.00553 0.0286547 0
1.17069 0.0471222 0
1.24133 0.0557786 0
1.26337 0.0552175 0
1.2657 0.048848 0
1.26234 0.039621 0
1.25882 0.0292703 0
1.25692 0.0186164 0
1.25709 0.00801474 0
1.25948 -0.00235024 0
1.26405 -0.0123135 0
1.27037 -0.0216231 0
1.27624 -0.0297808 0
1.27442 -0.0357555 0
1.24643 -0.0376839 0
1.15711 -0.0332446 0
0.963064 -0.0219703 0
0.645212 -0.0087017 0
0.230483 -0.00111657 0
-0.247165 0.00563059 0
0.247119 5.0202e-05 0
0.679664 0.00564931 0
0.987716 0.0209323 0
1.16235 0.0362831 0
1.24189 0.04468 0
1.26954 0.0455428 0
1.27462 0.0411911 0
1.27235 0.034027 0
1.26912 0.0256231 0
1.26716 0.016806 0
1.26711 0.00798052 0
1.26911 -0.000618601 0
1.27306 -0.00877983 0
1.27826 -0.0162082 0
1.28202 -0.0223822 0
1.27629 -0.0263456 0
1.24215 -0.0266063 0
1.14623 -0.0217531 0
0.950266 -0.0124895 0
0.637902 -0.00348467 0
0.229419 0.000242575 0
-0.241795 0.00357252 0
0.241731 3.1879e-05 0
0.66492 0.00359418 0
0.972906 0.0143827 0
1.15425 0.0265646 0
1.24106 0.0342783 0
1.27375 0.0361751 0
1.28155 0.0336062 0
1.28047 0.0283893 0
1.27764 0.021868 0
1.2757 0.0148302 0
1.27543 0.00770908 0
1.277 0.000781193 0
1.28024 -0.00570319 0
1.28423 -0.0114206 0
1.28586 -0.0158575 0
1.27656 -0.0181828 0
1.23748 -0.0173042 0
1.1373 -0.0125838 0
0.941586 -0.0054309 0
0.634317 0.000101584 0
0.229667 0.00111412 0
-0.238395 0.0019097 0
0.23831 1.70769e-05 0
0.654516 0.00193146 0
0.961157 0.00893282 0
1.14682 0.0180737 0
1.23924 0.0248104 0
1.27624 0.0273788 0
1.2866 0.0263196 0
1.28678 0.022874 0
1.28445 0.0181147 0
1.28258 0.0127519 0
1.28213 0.0072252 0
1.28327 0.00184063 0
1.28577 -0.00312304 0
1.28853 -0.00733003 0
1.28812 -0.0103022 0
1.27572 -0.0113663 0
1.23294 -0.00981643 0
1.13041 -0.00561128 0
0.936258 -0.000474217 0
0.633353 0.00237141 0
0.230757 0.00159815 0
-0.236587 0.000636224 0
0.236481 5.73616e-06 0
0.647769 0.000655321 0
0.952344 0.00462114 0
1.14032 0.0110114 0
1.23678 0.016593 0
1.27728 0.0194887 0
1.28994 0.0196169 0
1.29139 0.0176943 0
1.28964 0.0145078 0
1.28793 0.0106607 0
1.28734 0.00657563 0
1.28808 0.00257224 0
1.28985 -0.00105619 0
1.29141 -0.00397879 0
1.28916 -0.00577479 0
1.27424 -0.00594108 0
1.22889 -0.00410972 0
1.12546 -0.000645987 0
0.933525 0.00271117 0
0.634114 0.00360694 0
0.232314 0.00178615 0
-0.235999 -0.000249388 0
0.235874 -2.15776e-06 0
0.643953 -0.000234827 0
0.946187 0.00146678 0
1.13495 0.00552995 0
1.23399 0.00989497 0
1.27717 0.0128083 0
1.2918 0.0137705 0
1.29448 0.0130625 0
1.29337 0.0111979 0
1.29189 0.00865584 0
1.29122 0.00582046 0
1.29159 0.00300659 0
1.29268 0.000505462 0
1.29316 -0.00137357 0
1.28933 -0.00228119 0
1.27248 -0.00187733 0
1.22556 -6.00239e-05 0
1.12224 0.00257722 0
0.932673 0.00447725 0
0.635886 0.00407401 0
0.234052 0.00176438 0
-0.236257 -0.000779812 0
0.236119 -6.89369e-06 0
0.642323 -0.000770406 0
0.942277 -0.000603326 0
1.13075 0.00163575 0
1.23119 0.00483515 0
1.27625 0.00752006 0
1.2925 0.00896941 0
1.29629 0.00914027 0
1.29583 0.00830884 0
1.29464 0.00682668 0
1.29394 0.00502238 0
1.29402 0.00318777 0
1.29451 0.0015957 0
1.29405 0.000520168 0
1.28895 0.000233865 0
1.27074 0.000936025 0
1.22303 0.00254405 0
1.12042 0.00438331 0
0.933076 0.00518184 0
0.638129 0.0040158 0
0.235769 0.0016099 0
-0.237024 -0.00102065 0
0.236876 -9.05246e-06 0
0.642176 -0.00101593 0
0.940129 -0.00175903 0
1.12767 -0.000829671 0
1.22861 0.00134669 0
1.27486 0.00364264 0
1.29235 0.00527919 0
1.2971 0.00600663 0
1.29728 0.0059152 0
1.29639 0.00523751 0
1.29573 0.004237 0
1.29557 0.00316792 0
1.29556 0.00227113 0
1.29433 0.00177622 0
1.28829 0.00188222 0
1.2692 0.00267864 0
1.22126 0.00397544 0
1.11966 0.00512243 0
0.934215 0.00516058 0
0.640465 0.0036397 0
0.237336 0.00138602 0
-0.23802 -0.00105441 0
0.237868 -9.36613e-06 0
0.642906 -0.00105329 0
0.939245 -0.00222728 0
1.12558 -0.00214425 0
1.22641 -0.000792494 0
1.27329 0.00104374 0
1.29166 0.00264257 0
1.2972 0.00365234 0
1.29794 0.00403419 0
1.29737 0.00392011 0
1.29677 0.0035065 0
1.29645 0.00300123 0
1.29605 0.00260448 0
1.29424 0.00249785 0
1.28753 0.00281577 0
1.26796 0.00357132 0
1.22017 0.00453029 0
1.11963 0.0051299 0
0.935696 0.00470067 0
0.642653 0.00310786 0
0.238687 0.00113979 0
-0.239048 -0.000961739 0
0.238895 -8.55116e-06 0
0.644052 -0.000962939 0
0.939177 -0.00224101 0
1.12429 -0.00263228 0
1.22465 -0.00189084 0
1.27176 -0.000509509 0
1.29069 0.000910509 0
1.29685 0.00199617 0
1.29806 0.00263272 0
1.29778 0.00287493 0
1.29727 0.00285729 0
1.29684 0.00273878 0
1.29616 0.00267572 0
1.29395 0.00280322 0
1.28681 0.00320363 0
1.26705 0.00384373 0
1.2196 0.00449 0
1.12006 0.0046941 0
0.937246 0.00402526 0
0.644565 0.00253492 0
0.239799 0.000902422 0
-0.239987 -0.000808367 0
0.239835 -7.19253e-06 0
0.645299 -0.000810758 0
0.939567 -0.00199985 0
1.12358 -0.00259837 0
1.22333 -0.00227009 0
1.2704 -0.00128825 0
1.28966 -0.000113038 0
1.29624 0.000913347 0
1.29784 0.00164326 0
1.29781 0.00207838 0
1.2974 0.00230114 0
1.29691 0.00242457 0
1.29605 0.00256294 0
1.29357 0.0028102 0
1.28621 0.0032099 0
1.26643 0.00370639 0
1.21942 0.00409357 0
1.12072 0.00403871 0
0.938696 0.00329058 0
0.646153 0.0019927 0
0.240682 0.000691595 0
-0.240778 -0.000640095 0
0.240628 -5.69847e-06 0
0.646459 -0.000642854 0
0.940157 -0.00165125 0
1.12328 -0.00228697 0
1.22239 -0.00221148 0
1.26928 -0.00154959 0
1.28868 -0.000629114 0
1.29555 0.000264915 0
1.29743 0.000982153 0
1.2976 0.00149247 0
1.29729 0.00183832 0
1.29679 0.00209341 0
1.29582 0.00233532 0
1.2932 0.00262426 0
1.28574 0.00297724 0
1.26607 0.00333275 0
1.21948 0.00352399 0
1.12145 0.00331982 0
0.939961 0.00259335 0
0.647421 0.00151898 0
0.241361 0.000514882 0
-0.241408 -0.00048393 0
0.24126 -4.31016e-06 0
0.647444 -0.000486549 0
0.940782 -0.00128947 0
1.12322 -0.00186913 0
1.22176 -0.00192917 0
1.2684 -0.00150462 0
1.28783 -0.000814371 0
1.29487 -7.93383e-05 0
1.29695 0.000565269 0
1.29728 0.00107408 0
1.29705 0.00146151 0
1.29657 0.0017704 0
1.29555 0.00204877 0
1.29287 0.00233118 0
1.28541 0.00261812 0
1.2659 0.00285221 0
1.21969 0.00290752 0
1.12216 0.00263388 0
0.941009 0.00198385 0
0.648401 0.00112757 0
0.241869 0.000373124 0
-0.241887 -0.000352412 0
0.241743 -3.13999e-06 0
0.64823 -0.000354645 0
0.941353 -0.000965183 0
1.12329 -0.00144885 0
1.22136 -0.001567 0
1.26775 -0.0013071 0
1.28713 -0.000806685 0
1.29426 -0.000227466 0
1.29647 0.000318453 0
1.29692 0.000781846 0
1.29677 0.00115944 0
1.29631 0.0014717 0
1.29529 0.00174463 0
1.2926 0.00199466 0
1.28519 0.00221325 0
1.26585 0.002352 0
1.21996 0.00232142 0
1.1228 0.00203116 0
0.941846 0.0014801 0
0.64914 0.00081731 0
0.24224 0.000263298 0
-0.24224 -0.000248634 0
0.242098 -2.21607e-06 0
0.64883 -0.000250407 0
0.94183 -0.000698693 0
1.12341 -0.00107896 0
1.22112 -0.00120939 0
1.26727 -0.00105699 0
1.28658 -0.000703086 0
1.29374 -0.000260688 0
1.29603 0.000182527 0
1.29656 0.000580289 0
1.29647 0.000919623 0
1.29606 0.00120614 0
1.29506 0.00145063 0
1.2924 0.0016577 0
1.28507 0.00181492 0
1.26589 0.00188426 0
1.22025 0.00180568 0
1.12334 0.00153016 0
0.942496 0.00108048 0
0.649685 0.000579171 0
0.242504 0.000180606 0
-0.242494 -0.000170494 0
0.242353 -1.52008e-06 0
0.649273 -0.000171834 0
0.942208 -0.000492104 0
1.12355 -0.000778487 0
1.22099 -0.000897613 0
1.26694 -0.000811538 0
1.28616 -0.000565257 0
1.29332 -0.000234845 0
1.29566 0.000114037 0
1.29625 0.000441399 0
1.29621 0.000730156 0
1.29583 0.000976999 0
1.29487 0.00118312 0
1.29226 0.00134613 0
1.28501 0.00145288 0
1.26598 0.0014751 0
1.22053 0.00137489 0
1.12379 0.00113002 0
0.94299 0.000773165 0
0.65008 0.000401033 0
0.242689 0.000119837 0
-0.242672 -0.000113682 0
0.242532 -1.01387e-06 0
0.649592 -0.00011466 0
0.942494 -0.000338479 0
1.12367 -0.000547221 0
1.22091 -0.000645529 0
1.26671 -0.000598184 0
1.28585 -0.000428124 0
1.29299 -0.00018506 0
1.29535 8.33836e-05 0
1.29598 0.000344504 0
1.29598 0.000580629 0
1.29564 0.000783841 0
1.29472 0.000949919 0
1.29217 0.00107291 0
1.285 0.00114069 0
1.26609 0.00113323 0
1.22078 0.00102826 0
1.12414 0.000819844 0
0.943359 0.000542518 0
0.650361 0.000270581 0
0.242814 7.61297e-05 0
-0.242795 -7.34674e-05 0
0.242656 -6.55452e-07 0
0.649818 -7.4165e-05 0
0.942705 -0.000227683 0
1.12378 -0.000375935 0
1.22088 -0.00045185 0
1.26656 -0.00042591 0
1.28563 -0.000308467 0
1.29275 -0.000131295 0
1.29511 7.18364e-05 0
1.29576 0.000275188 0
1.29579 0.00046245 0
1.29549 0.000623965 0
1.29461 0.000752981 0
1.29211 0.000842233 0
1.28501 0.000881418 0
1.2662 0.000856939 0
1.22099 0.000757046 0
1.12442 0.000584894 0
0.943631 0.000372769 0
0.650558 0.000176788 0
0.242897 4.53224e-05 0
-0.242879 -4.55899e-05 0
0.242741 -4.06932e-07 0
0.649976 -4.60804e-05 0
0.942858 -0.000149591 0
1.12386 -0.000252618 0
1.22086 -0.00030842 0
1.26646 -0.000293659 0
1.28547 -0.000211982 0
1.29256 -8.34124e-05 0
1.29492 6.84472e-05 0
1.29559 0.000223869 0
1.29565 0.00036879 0
1.29538 0.000493536 0
1.29454 0.000590659 0
1.29208 0.000652925 0
1.28505 0.000672045 0
1.2663 0.000639206 0
1.22116 0.000549356 0
1.12463 0.000410157 0
0.94383 0.000249881 0
0.650694 0.000110481 0
0.24295 2.40477e-05 0
-0.242936 -2.65872e-05 0
0.242799 -2.37497e-07 0
0.650085 -2.69305e-05 0
0.942966 -9.5511e-05 0
1.12392 -0.000165718 0
1.22086 -0.000205105 0
1.26639 -0.000195855 0
1.28535 -0.000138351 0
1.29242 -4.51341e-05 0
1.29478 6.74117e-05 0
1.29546 0.000184435 0
1.29554 0.000294341 0
1.29529 0.000388355 0
1.29449 0.00045938 0
1.29207 0.000500918 0
1.28509 0.000506577 0
1.2664 0.000470947 0
1.22131 0.000393011 0
1.1248 0.000282165 0
0.943973 0.000162227 0
0.650787 6.43857e-05 0
0.242982 9.68499e-06 0
-0.242975 -1.38176e-05 0
0.242838 -1.23621e-07 0
0.65016 -1.4059e-05 0
0.943043 -5.8578e-05 0
1.12397 -0.000105499 0
1.22086 -0.000132284 0
1.26634 -0.00012562 0
1.28527 -8.45027e-05 0
1.29232 -1.68154e-05 0
1.29468 6.60738e-05 0
1.29536 0.00015311 0
1.29545 0.000235025 0
1.29523 0.000304333 0
1.29446 0.000354799 0
1.29208 0.000380948 0
1.28513 0.000378025 0
1.26648 0.000342953 0
1.22142 0.000276982 0
1.12492 0.000189669 0
0.944076 0.000100602 0
0.650848 3.29283e-05 0
0.243 2.53931e-07 0
-0.243001 -5.34786e-06 0
0.242864 -4.80791e-08 0
0.650211 -5.51981e-06 0
0.943097 -3.36473e-05 0
1.124 -6.43342e-05 0
1.22086 -8.18647e-05 0
1.26631 -7.64007e-05 0
1.28521 -4.6513e-05 0
1.29225 2.77908e-06 0
1.2946 6.35454e-05 0
1.29529 0.000127608 0
1.29539 0.000187719 0
1.29519 0.00023775 0
1.29444 0.000272507 0
1.29209 0.000287582 0
1.28517 0.000279548 0
1.26656 0.000246876 0
1.22151 0.000191952 0
1.12502 0.000123689 0
0.94415 5.79527e-05 0
0.650888 1.19366e-05 0
0.243009 -5.70943e-06 0
-0.243018 1.96546e-07 0
0.242881 1.37921e-09 0
0.650247 7.13848e-08 0
0.943135 -1.69928e-05 0
1.12403 -3.65254e-05 0
1.22086 -4.74918e-05 0
1.26629 -4.26481e-05 0
1.28517 -2.05819e-05 0
1.2922 1.5439e-05 0
1.29455 5.98275e-05 0
1.29524 0.000106547 0
1.29535 0.000150019 0
1.29517 0.000185371 0
1.29443 0.000208434 0
1.2921 0.000215783 0
1.28521 0.000205024 0
1.26662 0.000175615 0
1.22159 0.000130396 0
1.12509 7.72756e-05 0
0.944203 2.89876e-05 0
0.650913 -1.65451e-06 0
0.243011 -9.26806e-06 0
-0.24303 3.77319e-06 0
0.242893 3.32897e-08 0
0.650271 3.67949e-06 0
0.943162 -5.97768e-06 0
1.12405 -1.79414e-05 0
1.22087 -2.43876e-05 0
1.26627 -1.99667e-05 0
1.28515 -3.45268e-06 0
1.29216 2.29624e-05 0
1.29451 5.52902e-05 0
1.2952 8.90708e-05 0
1.29533 0.000120058 0
1.29515 0.00014446 0
1.29443 0.000159027 0
1.29212 0.000161166 0
1.28525 0.000149263 0
1.26667 0.000123382 0
1.22165 8.64114e-05 0
1.12514 4.51637e-05 0
0.94424 9.80474e-06 0
0.650929 -1.00654e-05 0
0.24301 -1.11823e-05 0
-0.243038 6.03934e-06 0
0.242901 5.35123e-08 0
0.650288 5.96692e-06 0
0.943181 1.23345e-06 0
1.12406 -5.65033e-06 0
1.22087 -9.06483e-06 0
1.26627 -5.02439e-06 0
1.28513 7.47454e-06 0
1.29214 2.69107e-05 0
1.29449 5.03933e-05 0
1.29518 7.46169e-05 0
1.29531 9.63728e-05 0
1.29515 0.00011276 0
1.29444 0.000121296 0
1.29214 0.000120065 0
1.28528 0.000108026 0
1.26671 8.55863e-05 0
1.2217 5.54704e-05 0
1.12518 2.34297e-05 0
0.944267 -2.4377e-06 0
0.650937 -1.48852e-05 0
0.243007 -1.19887e-05 0
-0.243044 7.44096e-06 0
0.242907 6.60236e-08 0
0.650301 7.38316e-06 0
0.943195 5.9034e-06 0
1.12407 2.39787e-06 0
1.22087 9.68325e-07 0
1.26626 4.62839e-06 0
1.28512 1.41799e-05 0
1.29213 2.8531e-05 0
1.29447 4.55523e-05 0
1.29517 6.27818e-05 0
1.2953 7.78059e-05 0
1.29514 8.84308e-05 0
1.29445 9.2793e-05 0
1.29216 8.9508e-05 0
1.28531 7.79389e-05 0
1.26675 5.86679e-05 0
1.22173 3.41527e-05 0
1.12522 9.18465e-06 0
0.944286 -9.7874e-06 0
0.650942 -1.72389e-05 0
0.243003 -1.20608e-05 0
-0.243047 8.27775e-06 0
0.242911 7.34964e-08 0
0.650309 8.23029e-06 0
0.943206 8.8928e-06 0
1.12408 7.61992e-06 0
1.22088 7.46435e-06 0
1.26626 1.07509e-05 0
1.28511 1.81198e-05 0
1.29212 2.87635e-05 0
1.29446 4.10885e-05 0
1.29516 5.3249e-05 0
1.2953 6.34326e-05 0
1.29515 6.99944e-05 0
1.29446 7.15544e-05 0
1.29218 6.71301e-05 0
1.28534 5.63649e-05 0
1.26678 3.9907e-05 0
1.22176 1.99084e-05 0
1.12524 3.23654e-07 0
0.944301 -1.37051e-05 0
0.650944 -1.79135e-05 0
0.242999 -1.16547e-05 0
-0.24305 8.74927e-06 0
0.242913 7.77103e-08 0
0.650316 8.7094e-06 0
0.943214 1.07832e-05 0
1.12409 1.09853e-05 0
1.22088 1.16391e-05 0
1.26626 1.45825e-05 0
1.28511 2.0335e-05 0
1.29211 2.82855e-05 0
1.29446 3.72228e-05 0
1.29516 4.57522e-05 0
1.2953 5.25114e-05 0
1.29515 5.62734e-05 0
1.29447 5.6026e-05 0
1.2922 5.10841e-05 0
1.28536 4.12777e-05 0
1.26681 2.72538e-05 0
1.22179 1.0857e-05 0
1.12526 -4.67117e-06 0
0.944312 -1.52217e-05 0
0.650945 -1.74529e-05 0
0.242994 -1.0943e-05 0
-0.243052 8.98706e-06 0
0.242915 7.98386e-08 0
0.65032 8.95303e-06 0
0.943221 1.19641e-05 0
1.12409 1.3151e-05 0
1.22088 1.43258e-05 0
1.26626 1.69811e-05 0
1.28511 2.15509e-05 0
1.29211 2.75649e-05 0
1.29446 3.4089e-05 0
1.29516 4.00588e-05 0
1.29531 4.44465e-05 0
1.29516 4.63377e-05 0
1.29448 4.49944e-05 0
1.29221 3.99456e-05 0
1.28538 3.11396e-05 0
1.26683 1.91817e-05 0
1.22181 5.62731e-06 0
1.12528 -6.88238e-06 0
0.944321 -1.50553e-05 0
0.650946 -1.62257e-05 0
0.24299 -1.00389e-05 0
-0.243053 9.07673e-06 0
0.242916 8.06452e-08 0
0.650324 9.04744e-06 0
0.943226 1.26935e-05 0
1.1241 1.45574e-05 0
1.22089 1.60875e-05 0
1.26626 1.85301e-05 0
1.28511 2.22599e-05 0
1.29211 2.69112e-05 0
1.29446 3.17529e-05 0
1.29516 3.5963e-05 0
1.29531 3.87598e-05 0
1.29517 3.94595e-05 0
1.29449 3.75234e-05 0
1.29223 3.26307e-05 0
1.2854 2.47983e-05 0
1.26685 1.45683e-05 0
1.22183 3.23204e-06 0
1.12529 -7.07105e-06 0
0.944328 -1.36969e-05 0
0.650946 -1.44759e-05 0
0.242987 -9.01397e-06 0
-0.243053 9.07308e-06 0
0.242917 8.06189e-08 0
0.650327 9.04782e-06 0
0.94323 1.31401e-05 0
1.12411 1.54952e-05 0
1.22089 1.72986e-05 0
1.26627 1.96179e-05 0
1.28511 2.27868e-05 0
1.29211 2.65187e-05 0
1.29446 3.02326e-05 0
1.29516 3.32839e-05 0
1.29532 3.50702e-05 0
1.29518 3.50742e-05 0
1.2945 3.28993e-05 0
1.29224 2.83254e-05 0
1.28541 2.14035e-05 0
1.26686 1.26005e-05 0
1.22185 2.97229e-06 0
1.12531 -5.76111e-06 0
0.944335 -1.14729e-05 0
0.650947 -1.23578e-05 0
0.242985 -7.91042e-06 0
-0.243054 9.01011e-06 0
0.242917 8.00633e-08 0
0.650329 8.98842e-06 0
0.943234 1.34111e-05 0
1.12411 1.61522e-05 0
1.2209 1.82024e-05 0
1.26627 2.0496e-05 0
1.28511 2.33376e-05 0
1.29211 2.65006e-05 0
1.29446 2.95148e-05 0
1.29517 3.18647e-05 0
1.29532 3.30766e-05 0
1.29518 3.27504e-05 0
1.29451 3.05868e-05 0
1.29225 2.64298e-05 0
1.28543 2.03392e-05 0
1.26688 1.27022e-05 0
1.22186 4.36614e-06 0
1.12532 -3.30105e-06 0
0.944342 -8.58944e-06 0
0.650949 -9.96166e-06 0
0.242983 -6.74954e-06 0
-0.243054 8.90777e-06 0
0.242917 7.91566e-08 0
0.65033 8.88934e-06 0
0.943237 1.35723e-05 0
1.12411 1.66451e-05 0
1.2209 1.89506e-05 0