# vtk DataFile Version 3.0
vtk output
ASCII
DATASET UNSTRUCTURED_GRID
POINTS 1913 double
0.045977 0 0
0.045977 0.0952381 0
0.045977 0.142857 0
0.045977 0.190476 0
0.045977 0.238095 0
0.045977 0.285714 0
0.045977 0.333333 0
0.045977 0.380952 0
0.045977 0.428571 0
0.045977 0.47619 0
0.045977 0.52381 0
0.045977 0.571429 0
0.045977 0.619048 0
0.045977 0.666667 0
0.045977 0.714286 0
0.045977 0.761905 0
0.045977 0.809524 0
0.045977 0.857143 0
0.045977 0.904762 0
0.045977 0.952381 0
0.045977 1 0
0.091954 0 0
0.091954 0.047619 0
0.091954 0.0952381 0
0.091954 0.142857 0
0.091954 0.190476 0
0.091954 0.238095 0
0.091954 0.285714 0
0.091954 0.333333 0
0.091954 0.380952 0
0.091954 0.428571 0
0.091954 0.47619 0
0.091954 0.52381 0
0.091954 0.571429 0
0.091954 0.619048 0
0.091954 0.666667 0
0.091954 0.714286 0
0.091954 0.761905 0
0.091954 0.809524 0
0.091954 0.857143 0
0.091954 0.904762 0
0.091954 0.952381 0
0.091954 1 0
0.137931 0 0
0.137931 0.047619 0
0.137931 0.0952381 0
0.137931 0.142857 0
0.137931 0.190476 0
0.137931 0.238095 0
0.137931 0.285714 0
0.137931 0.333333 0
0.137931 0.380952 0
0.137931 0.428571 0
0.137931 0.47619 0
0.137931 0.52381 0
0.137931 0.571429 0
0.137931 0.619048 0
0.137931 0.666667 0
0.137931 0.714286 0
0.137931 0.761905 0
0.137931 0.809524 0
0.137931 0.857143 0
0.137931 0.904762 0
0.137931 0.952381 0
0.137931 1 0
0.183908 0 0
0.183908 0.047619 0
0.183908 0.0952381 0
0.183908 0.142857 0
0.183908 0.190476 0
0.183908 0.238095 0
0.183908 0.285714 0
0.183908 0.333333 0
0.183908 0.380952 0
0.183908 0.428571 0
0.183908 0.47619 0
0.183908 0.52381 0
0.183908 0.571429 0
0.183908 0.619048 0
0.183908 0.666667 0
0.183908 0.714286 0
0.183908 0.761905 0
0.183908 0.809524 0
0.183908 0.857143 0
0.183908 0.904762 0
0.183908 0.952381 0
0.183908 1 0
0.229885 0 0
0.229885 0.047619 0
0.229885 0.0952381 0
0.229885 0.142857 0
0.229885 0.190476 0
0.229885 0.238095 0
0.229885 0.285714 0
0.229885 0.333333 0
0.229885 0.380952 0
0.229885 0.428571 0
0.229885 0.47619 0
0.229885 0.52381 0
0.229885 0.571429 0
0.229885 0.619048 0
0.229885 0.666667 0
0.229885 0.714286 0
0.229885 0.761905 0
0.229885 0.809524 0
0.229885 0.857143 0
0.229885 0.904762 0
0.229885 0.952381 0
0.229885 1 0
0.275862 0 0
0.275862 0.047619 0
0.275862 0.0952381 0
0.275862 0.142857 0
0.275862 0.190476 0
0.275862 0.238095 0
0.275862 0.285714 0
0.275862 0.333333 0
0.275862 0.380952 0
0.275862 0.428571 0
0.275862 0.47619 0
0.275862 0.52381 0
0.275862 0.571429 0
0.275862 0.619048 0
0.275862 0.666667 0
0.275862 0.714286 0
0.275862 0.761905 0
0.275862 0.809524 0
0.275862 0.857143 0
0.275862 0.904762 0
0.275862 0.952381 0
0.275862 1 0
0.321839 0 0
0.321839 0.047619 0
0.321839 0.0952381 0
0.321839 0.142857 0
0.321839 0.190476 0
0.321839 0.238095 0
0.321839 0.285714 0
0.321839 0.333333 0
0.321839 0.380952 0
0.321839 0.428571 0
0.321839 0.47619 0
0.321839 0.52381 0
0.321839 0.571429 0
0.321839 0.619048 0
0.321839 0.666667 0
0.321839 0.714286 0
0.321839 0.761905 0
0.321839 0.809524 0
0.321839 0.857143 0
0.321839 0.904762 0
0.321839 0.952381 0
0.321839 1 0
0.367816 0 0
0.367816 0.047619 0
0.367816 0.0952381 0
0.367816 0.142857 0
0.367816 0.190476 0
0.367816 0.238095 0
0.367816 0.285714 0
0.367816 0.333333 0
0.367816 0.380952 0
0.367816 0.428571 0
0.367816 0.47619 0
0.367816 0.52381 0
0.367816 0.571429 0
0.367816 0.619048 0
0.367816 0.666667 0
0.367816 0.714286 0
0.367816 0.761905 0
0.367816 0.809524 0
0.367816 0.857143 0
0.367816 0.904762 0
0.367816 0.952381 0
0.367816 1 0
0.413793 0 0
0.413793 0.047619 0
0.413793 0.0952381 0
0.413793 0.142857 0
0.413793 0.190476 0
0.413793 0.238095 0
0.413793 0.285714 0
0.413793 0.333333 0
0.413793 0.380952 0
0.413793 0.428571 0
0.413793 0.47619 0
0.413793 0.52381 0
0.413793 0.571429 0
0.413793 0.619048 0
0.413793 0.666667 0
0.413793 0.714286 0
0.413793 0.761905 0
0.413793 0.809524 0
0.413793 0.857143 0
0.413793 0.904762 0
0.413793 0.952381 0
0.413793 1 0
0.45977 0 0
0.45977 0.047619 0
0.45977 0.0952381 0
0.45977 0.142857 0
0.45977 0.190476 0
0.45977 0.238095 0
0.45977 0.285714 0
0.45977 0.333333 0
0.45977 0.380952 0
0.45977 0.428571 0
0.45977 0.47619 0
0.45977 0.52381 0
0.45977 0.571429 0
0.45977 0.619048 0
0.45977 0.666667 0
0.45977 0.714286 0
0.45977 0.761905 0
0.45977 0.809524 0
0.45977 0.857143 0
0.45977 0.904762 0
0.45977 0.952381 0
0.45977 1 0
0.505747 0 0
0.505747 0.047619 0
0.505747 0.0952381 0
0.505747 0.142857 0
0.505747 0.190476 0
0.505747 0.238095 0
0.505747 0.285714 0
0.505747 0.333333 0
0.505747 0.380952 0
0.505747 0.428571 0
0.505747 0.47619 0
0.505747 0.52381 0
0.505747 0.571429 0
0.505747 0.619048 0
0.505747 0.666667 0
0.505747 0.714286 0
0.505747 0.761905 0
0.505747 0.809524 0
0.505747 0.857143 0
0.505747 0.904762 0
0.505747 0.952381 0
0.505747 1 0
0.551724 0 0
0.551724 0.047619 0
0.551724 0.0952381 0
0.551724 0.142857 0
0.551724 0.190476 0
0.551724 0.238095 0
0.551724 0.285714 0
0.551724 0.333333 0
0.551724 0.380952 0
0.551724 0.428571 0
0.551724 0.47619 0
0.551724 0.52381 0
0.551724 0.571429 0
0.551724 0.619048 0
0.551724 0.666667 0
0.551724 0.714286 0
0.551724 0.761905 0
0.551724 0.809524 0
0.551724 0.857143 0
0.551724 0.904762 0
0.551724 0.952381 0
0.551724 1 0
0.597701 0 0
0.597701 0.047619 0
0.597701 0.0952381 0
0.597701 0.142857 0
0.597701 0.190476 0
0.597701 0.238095 0
0.597701 0.285714 0
0.597701 0.333333 0
0.597701 0.380952 0
0.597701 0.428571 0
0.597701 0.47619 0
0.597701 0.52381 0
0.597701 0.571429 0
0.597701 0.619048 0
0.597701 0.666667 0
0.597701 0.714286 0
0.597701 0.761905 0
0.597701 0.809524 0
0.597701 0.857143 0
0.597701 0.904762 0
0.597701 0.952381 0
0.597701 1 0
0.643678 0 0
0.643678 0.047619 0
0.643678 0.0952381 0
0.643678 0.142857 0
0.643678 0.190476 0
0.643678 0.238095 0
0.643678 0.285714 0
0.643678 0.333333 0
0.643678 0.380952 0
0.643678 0.428571 0
0.643678 0.47619 0
0.643678 0.52381 0
0.643678 0.571429 0
0.643678 0.619048 0
0.643678 0.666667 0
0.643678 0.714286 0
0.643678 0.761905 0
0.643678 0.809524 0
0.643678 0.857143 0
0.643678 0.904762 0
0.643678 0.952381 0
0.643678 1 0
0.689655 0 0
0.689655 0.047619 0
0.689655 0.0952381 0
0.689655 0.142857 0
0.689655 0.190476 0
0.689655 0.238095 0
0.689655 0.285714 0
0.689655 0.333333 0
0.689655 0.380952 0
0.689655 0.428571 0
0.689655 0.47619 0
0.689655 0.52381 0
0.689655 0.571429 0
0.689655 0.619048 0
0.689655 0.666667 0
0.689655 0.714286 0
0.689655 0.761905 0
0.689655 0.809524 0
0.689655 0.857143 0
0.689655 0.904762 0
0.689655 0.952381 0
0.689655 1 0
0.735632 0 0
0.735632 0.047619 0
0.735632 0.0952381 0
0.735632 0.142857 0
0.735632 0.190476 0
0.735632 0.238095 0
0.735632 0.285714 0
0.735632 0.333333 0
0.735632 0.380952 0
0.735632 0.428571 0
0.735632 0.47619 0
0.735632 0.52381 0
0.735632 0.571429 0
0.735632 0.619048 0
0.735632 0.666667 0
0.735632 0.714286 0
0.735632 0.761905 0
0.735632 0.809524 0
0.735632 0.857143 0
0.735632 0.904762 0
0.735632 0.952381 0
0.735632 1 0
0.781609 0 0
0.781609 0.047619 0
0.781609 0.0952381 0
0.781609 0.142857 0
0.781609 0.190476 0
0.781609 0.238095 0
0.781609 0.285714 0
0.781609 0.333333 0
0.781609 0.380952 0
0.781609 0.428571 0
0.781609 0.47619 0
0.781609 0.52381 0
0.781609 0.571429 0
0.781609 0.619048 0
0.781609 0.666667 0
0.781609 0.714286 0
0.781609 0.761905 0
0.781609 0.809524 0
0.781609 0.857143 0
0.781609 0.904762 0
0.781609 0.952381 0
0.781609 1 0
0.827586 0 0
0.827586 0.047619 0
0.827586 0.0952381 0
0.827586 0.142857 0
0.827586 0.190476 0
0.827586 0.238095 0
0.827586 0.285714 0
0.827586 0.333333 0
0.827586 0.380952 0
0.827586 0.428571 0
0.827586 0.47619 0
0.827586 0.52381 0
0.827586 0.571429 0
0.827586 0.619048 0
0.827586 0.666667 0
0.827586 0.714286 0
0.827586 0.761905 0
0.827586 0.809524 0
0.827586 0.857143 0
0.827586 0.904762 0
0.827586 0.952381 0
0.827586 1 0
0.873563 0 0
0.873563 0.047619 0
0.873563 0.0952381 0
0.873563 0.142857 0
0.873563 0.190476 0
0.873563 0.238095 0
0.873563 0.285714 0
0.873563 0.333333 0
0.873563 0.380952 0
0.873563 0.428571 0
0.873563 0.47619 0
0.873563 0.52381 0
0.873563 0.571429 0
0.873563 0.619048 0
0.873563 0.666667 0
0.873563 0.714286 0
0.873563 0.761905 0
0.873563 0.809524 0
0.873563 0.857143 0
0.873563 0.904762 0
0.873563 0.952381 0
0.873563 1 0
0.91954 0 0
0.91954 0.047619 0
0.91954 0.0952381 0
0.91954 0.142857 0
0.91954 0.190476 0
0.91954 0.238095 0
0.91954 0.285714 0
0.91954 0.333333 0
0.91954 0.380952 0
0.91954 0.428571 0
0.91954 0.47619 0
0.91954 0.52381 0
0.91954 0.571429 0
0.91954 0.619048 0
0.91954 0.666667 0
0.91954 0.714286 0
0.91954 0.761905 0
0.91954 0.809524 0
0.91954 0.857143 0
0.91954 0.904762 0
0.91954 0.952381 0
0.91954 1 0
0.965517 0 0
0.965517 0.047619 0
0.965517 0.0952381 0
0.965517 0.142857 0
0.965517 0.190476 0
0.965517 0.238095 0
0.965517 0.285714 0
0.965517 0.333333 0
0.965517 0.380952 0
0.965517 0.428571 0
0.965517 0.47619 0
0.965517 0.52381 0
0.965517 0.571429 0
0.965517 0.619048 0
0.965517 0.666667 0
0.965517 0.714286 0
0.965517 0.761905 0
0.965517 0.809524 0
0.965517 0.857143 0
0.965517 0.904762 0
0.965517 0.952381 0
0.965517 1 0
1.01149 0 0
1.01149 0.047619 0
1.01149 0.0952381 0
1.01149 0.142857 0
1.01149 0.190476 0
1.01149 0.238095 0
1.01149 0.285714 0
1.01149 0.333333 0
1.01149 0.380952 0
1.01149 0.428571 0
1.01149 0.47619 0
1.01149 0.52381 0
1.01149 0.571429 0
1.01149 0.619048 0
1.01149 0.666667 0
1.01149 0.714286 0
1.01149 0.761905 0
1.01149 0.809524 0
1.01149 0.857143 0
1.01149 0.904762 0
1.01149 0.952381 0
1.01149 1 0
1.05747 0 0
1.05747 0.047619 0
1.05747 0.0952381 0
1.05747 0.142857 0
1.05747 0.190476 0
1.05747 0.238095 0
1.05747 0.285714 0
1.05747 0.333333 0
1.05747 0.380952 0
1.05747 0.428571 0
1.05747 0.47619 0
1.05747 0.52381 0
1.05747 0.571429 0
1.05747 0.619048 0
1.05747 0.666667 0
1.05747 0.714286 0
1.05747 0.761905 0
1.05747 0.809524 0
1.05747 0.857143 0
1.05747 0.904762 0
1.05747 0.952381 0
1.05747 1 0
1.10345 0 0
1.10345 0.047619 0
1.10345 0.0952381 0
1.10345 0.142857 0
1.10345 0.190476 0
1.10345 0.238095 0
1.10345 0.285714 0
1.10345 0.333333 0
1.10345 0.380952 0
1.10345 0.428571 0
1.10345 0.47619 0
1.10345 0.52381 0
1.10345 0.571429 0
[...]
POINT_DATA 1913
VECTORS velocity[m/s] double
-0 0.208824 0
0 0.208832 0
0 0.208538 0
0 0.180216 0
0 0.150324 0
0 0.122349 0
0 0.0964298 0
0 0.0721864 0
0 0.0491524 0
0 0.0268589 0
0 0.004846 0
0 -0.0173526 0
0 -0.0402375 0
0 -0.0643823 0
0 -0.0904847 0
0 -0.119438 0
0 -0.15243 0
0 -0.191072 0
0 -0.237157 0
0 -0.288003 0
0 -0.300753 0
-0.869565 0.184407 0
0.869565 0.00162647 0
1.07148 0.184415 0
1.09856 0.207651 0
1.10009 0.183285 0
1.09826 0.152305 0
1.0963 0.123318 0
1.0947 0.0969002 0
1.09354 0.0724321 0
1.09283 0.0492969 0
1.09255 0.0269622 0
1.09272 0.00494148 0
1.09336 -0.017245 0
1.09454 -0.0401066 0
1.09639 -0.0642276 0
1.09909 -0.0903278 0
1.10294 -0.119361 0
1.10833 -0.152657 0
1.11544 -0.191852 0
1.11997 -0.236607 0
1.08312 -0.271686 0
0.780392 -0.228831 0
-0.693111 0.143681 0
0.693103 0.00128718 0
1.04906 0.14369 0
1.1221 0.188199 0
1.13002 0.17678 0
1.12627 0.149696 0
1.12182 0.121595 0
1.11834 0.0955367 0
1.11589 0.0714258 0
1.11441 0.0486847 0
1.11383 0.0267708 0
1.11416 0.00520229 0
1.11545 -0.0164822 0
1.11785 -0.0387631 0
1.12161 -0.0621836 0
1.12714 -0.0874064 0
1.1351 -0.11528 0
1.14619 -0.146786 0
1.15867 -0.182036 0
1.15386 -0.215284 0
1.04176 -0.220667 0
0.559469 -0.142233 0
-0.555651 0.104411 0
0.555635 0.000934755 0
1.0061 0.10442 0
1.13314 0.159372 0
1.15619 0.161721 0
1.15341 0.141846 0
1.147 0.116777 0
1.14163 0.0922056 0
1.13786 0.0691338 0
1.13558 0.0473029 0
1.13467 0.0262648 0
1.13511 0.00558965 0
1.13698 -0.015131 0
1.14048 -0.0363125 0
1.14598 -0.0584087 0
1.15407 -0.0819421 0
1.16554 -0.107477 0
1.18024 -0.135226 0
1.19079 -0.163169 0
1.15907 -0.181297 0
0.966051 -0.163052 0
0.422159 -0.0806475 0
-0.455767 0.0726265 0
0.455742 0.000649612 0
0.953062 0.0726348 0
1.13089 0.129076 0
1.17539 0.141886 0
1.17763 0.129867 0
1.17074 0.109142 0
1.16392 0.0870117 0
1.15896 0.0656132 0
1.15591 0.0451718 0
1.15465 0.0254252 0
1.15513 0.00604002 0
1.15744 -0.0133108 0
1.16183 -0.0329501 0
1.16872 -0.0532089 0
1.17874 -0.0744145 0
1.19235 -0.0967482 0
1.20723 -0.119563 0
1.20831 -0.139148 0
1.14147 -0.144107 0
0.886505 -0.113995 0
0.34431 -0.0447672 0
-0.386295 0.0491748 0
0.386263 0.00043952 0
0.898584 0.0491842 0
1.11854 0.101436 0
1.18701 0.120523 0
1.19766 0.115347 0
1.19212 0.0993423 0
1.1846 0.0802411 0
1.17871 0.0610056 0
1.17499 0.0423509 0
1.17338 0.0242448 0
1.17383 0.00647868 0
1.17642 -0.0111751 0
1.1814 -0.0289326 0
1.18921 -0.0469862 0
1.20032 -0.0654509 0
1.21439 -0.0841245 0
1.22616 -0.101662 0
1.21312 -0.113522 0
1.11242 -0.109327 0
0.819682 -0.0766997 0
0.301104 -0.0249569 0
-0.339265 0.0327977 0
0.339223 0.000292975 0
0.84815 0.0328117 0
1.10013 0.0778418 0
1.19203 0.0995259 0
1.21313 0.0995371 0
1.21058 0.088015 0
1.20319 0.0722095 0
1.19674 0.0554768 0
1.19249 0.0389169 0
1.19055 0.0227251 0
1.19089 0.00682972 0
1.19358 -0.00888935 0
1.19885 -0.0245366 0
1.20705 -0.040166 0
1.21837 -0.0556923 0
1.23134 -0.0705963 0
1.23763 -0.0831108 0
1.20908 -0.0886854 0
1.08093 -0.0792726 0
0.769742 -0.0495789 0
0.277027 -0.0137287 0
-0.307905 0.0215762 0
0.30785 0.000192668 0
0.804689 0.0215984 0
1.07921 0.058178 0
1.19203 0.0796944 0
1.22427 0.0832215 0
1.22585 0.0756643 0
1.21936 0.0632096 0
1.21274 0.0491988 0
1.20814 0.0349596 0
1.20591 0.0208809 0
1.20608 0.00702724 0
1.20871 -0.00661087 0
1.21396 -0.0200282 0
1.22206 -0.0331501 0
1.23278 -0.0457227 0
1.24344 -0.05701 0
1.24303 -0.0651111 0
1.20002 -0.066056 0
1.05228 -0.0545114 0
0.735147 -0.0302071 0
0.263791 -0.00700082 0
-0.287284 0.0137832 0
0.287208 0.000123081 0
0.769387 0.0138142 0
1.05845 0.0418452 0
1.18864 0.0613428 0
1.23158 0.0669616 0
1.2379 0.0627623 0
1.2329 0.0535677 0
1.22651 0.0423832 0
1.22175 0.030601 0
1.21931 0.0187518 0
1.21927 0.00702693 0
1.22168 -0.00447503 0
1.22665 -0.0156455 0
1.23422 -0.0262984 0
1.24369 -0.0360537 0
1.25128 -0.0440688 0
1.24396 -0.0485534 0
1.18889 -0.0464476 0
1.02883 -0.0349134 0
0.712761 -0.0166133 0
0.257051 -0.00281921 0
-0.274121 0.00824472 0
0.274015 7.36672e-05 0
0.74234 0.00828097 0
1.03964 0.0283831 0
1.18323 0.0447863 0
1.23566 0.0513659 0
1.24679 0.0498818 0
1.24372 0.043713 0
1.2379 0.0353183 0
1.2332 0.0260144 0
1.23064 0.0164139 0
1.23039 0.00681469 0
1.23248 -0.002586 0
1.23695 -0.0115888 0
1.24365 -0.0199196 0
1.25145 -0.027121 0
1.25563 -0.0323467 0
1.24195 -0.0340894 0
1.17777 -0.0302973 0
1.01119 -0.0200932 0
0.699463 -0.00739184 0
0.254349 -0.000251914 0
-0.266258 0.00430647 0
0.266118 3.85447e-05 0
0.72295 0.00434203 0
1.02382 0.0176193 0
1.1769 0.0304807 0
1.23711 0.0371522 0
1.25276 0.037706 0
1.25184 0.034171 0
1.2469 0.0283631 0
1.24249 0.0214208 0
1.23993 0.0139779 0
1.23948 0.0064083 0
1.24119 -0.00101169 0
1.24501 -0.00801178 0
1.25062 -0.0142588 0
1.25651 -0.019268 0
1.25733 -0.0222716 0
1.23831 -0.022135 0
1.16794 -0.0177355 0
0.998942 -0.00951766 0
0.692589 -0.00149999 0
0.254127 0.00120875 0
-0.262166 0.00162031 0
0.261991 1.45832e-05 0
0.710149 0.00164976 0
1.01142 0.00950067 0
1.17048 0.0188711 0
1.23659 0.0250031 0
1.25619 0.0269021 0
1.25747 0.0254715 0
1.25362 0.0218892 0
1.24969 0.0170566 0
1.24725 0.0115733 0
1.24666 0.00585108 0
1.24797 0.000217241 0
1.25106 -0.0050135 0
1.25548 -0.00948135 0
1.25943 -0.0127186 0
1.25722 -0.0140897 0
1.23408 -0.0128444 0
1.16002 -0.00859841 0
0.991221 -0.00252215 0
0.689994 0.00191143 0
0.255314 0.00190375 0
-0.260644 -5.38092e-05 0
0.260441 -3.64326e-07 0
0.702588 -3.33932e-05 0
1.00239 0.0038728 0
1.16457 0.0101657 0
1.23477 0.0153611 0
1.25759 0.0179565 0
1.26094 0.0180299 0
1.2583 0.016205 0
1.25501 0.0131285 0
1.25279 0.00932363 0
1.25212 0.00520026 0
1.25303 0.00110436 0
1.25539 -0.0026344 0
1.25862 -0.0056607 0
1.26077 -0.00755783 0
1.25604 -0.00784455 0
1.23 -0.00610771 0
1.15418 -0.0024674 0
0.98696 0.00164745 0
0.690022 0.0035684 0
0.257172 0.00209514 0
-0.260724 -0.00094671 0
0.260501 -8.35273e-06 0
0.698836 -0.00093544 0
0.996335 0.000386017 0
1.15958 0.00422316 0
1.23229 0.00831146 0
1.25754 0.0110698 0
1.26272 0.0120655 0
1.26129 0.0114978 0
1.2587 0.00977697 0
1.25679 0.00732423 0
1.25609 0.00451418 0
1.25666 0.00168062 0
1.25833 -0.000859213 0
1.26047 -0.00277995 0
1.26107 -0.00373594 0
1.25438 -0.00339532 0
1.2265 -0.00160208 0
1.15022 0.0012411 0
0.985125 0.00375516 0
0.691463 0.00407837 0
0.259214 0.00198699 0
-0.261658 -0.0012923 0
0.261425 -1.14614e-05 0
0.697579 -0.00128837 0
0.992649 -0.0014554 0
1.15565 0.000602903 0
1.22964 0.00360395 0
1.2566 0.00615545 0
1.26329 0.00758703 0
1.26297 0.00781684 0
1.26108 0.00706057 0
1.25952 0.00563021 0
1.25885 0.00384245 0
1.25913 0.00199519 0
1.2602 0.000372119 0
1.26141 -0.000748118 0
1.26076 -0.00109728 0
1.25266 -0.000470065 0
1.22377 0.00111999 0
1.14781 0.00316214 0
0.984831 0.00449018 0
0.693501 0.00391675 0
0.261151 0.00172882 0
-0.262922 -0.0013021 0
0.262685 -1.15715e-05 0
0.697758 -0.00130297 0
0.99068 -0.00217793 0
1.15277 -0.00128622 0
1.22719 0.000775262 0
1.25523 0.00291976 0
1.26308 0.00443736 0
1.26371 0.00509393 0
1.26248 0.00496309 0
1.26127 0.00425568 0
1.26065 0.00322057 0
1.26071 0.00210562 0
1.2613 0.00114839 0
1.26177 0.000573294 0
1.26017 0.000575613 0
1.25115 0.00126496 0
1.22182 0.00253499 0
1.14655 0.00388256 0
0.985403 0.00440852 0
0.695631 0.00342404 0
0.262838 0.00142021 0
-0.264195 -0.00114099 0
0.263959 -1.01515e-05 0
0.698621 -0.00114435 0
0.989836 -0.0022378 0
1.15079 -0.00203105 0
1.22514 -0.000703058 0
1.25378 0.00097342 0
1.26246 0.0023656 0
1.26386 0.00318497 0
1.26318 0.0034146 0
1.26228 0.00318191 0
1.26174 0.00266907 0
1.26165 0.00206937 0
1.26187 0.00156998 0
1.26178 0.00134154 0
1.25952 0.00151744 0
1.24994 0.00214242 0
1.22054 0.0030742 0
1.14606 0.00387934 0
0.986371 0.00391297 0
0.697583 0.00282007 0
0.264226 0.0011198 0
-0.265313 -0.000919455 0
0.265079 -8.18686e-06 0
0.699694 -0.000923624 0
0.989654 -0.00197106 0
1.14953 -0.002113 0
1.22354 -0.00131029 0
1.25245 -7.14705e-05 0
1.26169 0.00109699 0
1.26365 0.00191484 0
1.26342 0.00231715 0
1.26279 0.00236943 0
1.26233 0.00219569 0
1.26215 0.00193759 0
1.26211 0.00173434 0
1.26163 0.00170867 0
1.25893 0.00194574 0
1.24905 0.00245118 0
1.21977 0.0030828 0
1.14604 0.00349915 0
0.987442 0.00326516 0
0.699241 0.00223007 0
0.265324 0.000856498 0
-0.266217 -0.000700385 0
0.265988 -6.23978e-06 0
0.700721 -0.000704378 0
0.989807 -0.00159134 0
1.14877 -0.00187227 0
1.22236 -0.00141796 0
1.25134 -0.000541289 0
1.26092 0.000382187 0
1.26328 0.00111248 0
1.26338 0.00156702 0
1.26298 0.00176987 0
1.2626 0.00179895 0
1.26236 0.00175186 0
1.26215 0.0017264 0
1.26141 0.00180601 0
1.25846 0.00204097 0
1.24846 0.00241673 0
1.21939 0.00280976 0
1.14629 0.00296857 0
0.988458 0.00261547 0
0.700584 0.00171358 0
0.266167 0.000640109 0
-0.266911 -0.000512499 0
0.266685 -4.56784e-06 0
0.701594 -0.000515868 0
0.990094 -0.00121474 0
1.14835 -0.0015188 0
1.22153 -0.00127969 0
1.25047 -0.000678408 0
1.26023 2.19228e-05 0
1.26286 0.000631879 0
1.2632 0.0010698 0
1.26296 0.00133502 0
1.26266 0.00147185 0
1.2624 0.00154321 0
1.26209 0.00161386 0
1.2612 0.00173721 0
1.25811 0.00193997 0
1.2481 0.00219967 0
1.21925 0.00241814 0
1.14664 0.00241986 0
0.989344 0.00203708 0
0.701635 0.00128972 0
0.2668 0.000469726 0
-0.267424 -0.000363829 0
0.267202 -3.24384e-06 0
0.702284 -0.000366463 0
0.990403 -0.000892101 0
1.14813 -0.00116465 0
1.22096 -0.00104942 0
1.24981 -0.000645017 0
1.25965 -0.000128118 0
1.26245 0.000360008 0
1.26296 0.000747955 0
1.26285 0.00102237 0
1.26261 0.00120484 0
1.26235 0.00133291 0
1.26198 0.00144666 0
1.26102 0.00157793 0
1.25788 0.00173853 0
1.2479 0.00190515 0
1.21926 0.00200456 0
1.14703 0.00191982 0
0.990081 0.00155576 0
0.702442 0.000955945 0
0.267269 0.000339463 0
-0.267795 -0.000251959 0
0.267575 -2.24706e-06 0
0.702806 -0.00025392 0
0.990681 -0.000636878 0
1.14804 -0.000858731 0
1.22059 -0.000809586 0
1.24932 -0.000539698 0
1.2592 -0.000164101 0
1.26209 0.000215993 0
1.26271 0.000542604 0
1.26268 0.000797446 0
1.2625 0.000987944 0
1.26226 0.00113419 0
1.26187 0.00125897 0
1.26088 0.00137947 0
1.25773 0.00149877 0
1.24782 0.00159618 0
1.21936 0.00161968 0
1.14739 0.00149466 0
0.990674 0.00117159 0
0.703052 0.000700145 0
0.267611 0.000241908 0
-0.268057 -0.000170468 0
0.267839 -1.52069e-06 0
0.70319 -0.000171883 0
0.99091 -0.000444496 0
1.148 -0.000614599 0
1.22034 -0.000597497 0
1.24897 -0.000416649 0
1.25884 -0.000145405 0
1.26179 0.000145686 0
1.26248 0.000411755 0
1.26251 0.000634058 0
1.26237 0.000811934 0
1.26215 0.000954247 0
1.26177 0.00107234 0
1.26078 0.00117402 0
1.25765 0.00125774 0
1.24781 0.00130667 0
1.2195 0.0012853 0
1.14772 0.00114814 0
0.991143 0.000873107 0
0.703508 0.000507619 0
0.267859 0.000169909 0
-0.268241 -0.000112347 0
0.268024 -1.00252e-06 0
0.703467 -0.00011335 0
0.991088 -0.000303826 0
1.148 -0.00042885 0
1.22018 -0.000425155 0
1.24873 -0.000302125 0
1.25858 -0.000105974 0
1.26154 0.000114961 0
1.26228 0.000327028 0
1.26236 0.000513239 0
1.26225 0.000668867 0
1.26205 0.000796048 0
1.26168 0.000899016 0
1.26071 0.000979982 0
1.25762 0.00103529 0
1.24784 0.00105199 0
1.21964 0.00100674 0
1.148 0.000873254 0
0.99151 0.000645212 0
0.703848 0.000364464 0
0.268036 0.000117337 0
-0.268369 -7.14705e-05 0
0.268153 -6.38033e-07 0
0.703665 -7.21762e-05 0
0.991222 -0.000202965 0
1.14801 -0.000291783 0
1.22007 -0.000292114 0
1.24855 -0.000206369 0
1.25838 -6.35379e-05 0
1.26135 0.000103541 0
1.26211 0.000270111 0
1.26222 0.000421777 0
1.26214 0.000552215 0
1.26196 0.000659879 0
1.26162 0.000744916 0
1.26067 0.000806462 0
1.25762 0.000840232 0
1.2479 0.000836644 0
1.21978 0.000780925 0
1.14823 0.000659039 0
0.991794 0.000473211 0
0.7041 0.000258905 0
0.268163 7.92669e-05 0
-0.268456 -4.3007e-05 0
0.268241 -3.842e-07 0
0.703804 -4.35031e-05 0
0.991321 -0.000131593 0
1.14802 -0.000192721 0
1.22001 -0.000192891 0
1.24842 -0.000131313 0
1.25823 -2.62146e-05 0
1.2612 0.000100124 0
1.26198 0.000229678 0
1.26211 0.00035073 0
1.26205 0.000456754 0
1.26189 0.000544466 0
1.26157 0.000611903 0
1.26065 0.000656733 0
1.25763 0.000674818 0
1.24797 0.000659298 0
1.21991 0.000601214 0
1.14842 0.000494104 0
0.992014 0.000344413 0
0.704286 0.000181549 0
0.268252 5.18972e-05 0
-0.268517 -2.33513e-05 0
0.268302 -2.08896e-07 0
0.703902 -2.37023e-05 0
0.991393 -8.15832e-05 0
1.14804 -0.000122221 0
1.21996 -0.000120754 0
1.24834 -7.51084e-05 0
1.25812 3.17317e-06 0
1.26109 9.89e-05 0
1.26188 0.000198996 0
1.26202 0.000294157 0
1.26197 0.000378362 0
1.26184 0.000447749 0
1.26154 0.000499469 0
1.26065 0.00053068 0
1.25766 0.000537752 0
1.24804 0.000515908 0
1.22003 0.000460037 0
1.14858 0.00036818 0
0.992184 0.000248519 0
0.704424 0.000125156 0
0.268315 3.2361e-05 0
-0.268557 -9.89535e-06 0
0.268343 -8.88742e-08 0
0.70397 -1.01467e-05 0
0.991444 -4.68511e-05 0
1.14805 -7.26968e-05 0
1.21993 -6.94129e-05 0
1.24827 -3.45591e-05 0
1.25804 2.44749e-05 0
1.26101 9.72343e-05 0
1.2618 0.000174216 0
1.26195 0.000248147 0
1.26192 0.000313802 0
1.2618 0.000367381 0
1.26152 0.000405857 0
1.26065 0.000426411 0
1.25769 0.000426038 0
1.2481 0.000401503 0
1.22013 0.000350172 0
1.14871 0.000272647 0
0.992315 0.00017746 0
0.704526 8.42548e-05 0
0.268358 1.85298e-05 0
-0.268585 -7.83801e-07 0
0.26837 -7.59271e-09 0
0.704017 -9.66954e-07 0
0.991481 -2.29621e-05 0
1.14806 -3.83566e-05 0
1.2199 -3.36087e-05 0
1.24823 -6.31953e-06 0
1.25798 3.87167e-05 0
1.26095 9.4212e-05 0
1.26174 0.000153223 0
1.2619 0.000210115 0
1.26188 0.000260524 0
1.26178 0.000301026 0
1.26152 0.000328786 0
1.26067 0.000341269 0
1.25773 0.000336088 0
1.24816 0.000311123 0
1.22022 0.000265291 0
1.14881 0.000200545 0
0.992417 0.000125041 0
0.704601 5.47637e-05 0
0.268388 8.83778e-06 0
-0.268603 5.29271e-06 0
0.268389 4.66237e-08 0
0.70405 5.15639e-06 0
0.991508 -6.72995e-06 0
1.14806 -1.48958e-05 0
1.21989 -9.18692e-06 0
1.2482 1.25978e-05 0
1.25794 4.73044e-05 0
1.2609 8.97757e-05 0
1.26169 0.000134899 0
1.26186 0.000178328 0
1.26185 0.000216509 0
1.26176 0.000246515 0
1.26152 0.000265866 0
1.26068 0.000272418 0
1.25776 0.000264331 0
1.24822 0.000240274 0
1.22029 0.000200103 0
1.1489 0.000146386 0
0.992497 8.65659e-05 0
0.704657 3.36555e-05 0
0.268408 2.13985e-06 0
-0.268614 9.25499e-06 0
0.2684 8.19856e-08 0
0.704073 9.15101e-06 0
0.991527 4.11853e-06 0
1.14807 8.34514e-07 0
1.21988 7.02637e-06 0
1.24817 2.46598e-05 0
1.25791 5.16332e-05 0
1.26087 8.42366e-05 0
1.26166 0.00011867 0
1.26183 0.000151586 0
1.26183 0.000180143 0
1.26176 0.000201917 0
1.26152 0.00021484 0
1.2607 0.000217161 0
1.2578 0.000207506 0
1.24827 0.000185088 0
1.22035 0.000150303 0
1.14897 0.000105906 0
0.992559 5.8496e-05 0
0.704699 1.86957e-05 0
0.268421 -2.398e-06 0
-0.268622 1.17497e-05 0
0.268408 1.04259e-07 0
0.704089 1.16682e-05 0
0.991541 1.11999e-05 0
1.14807 1.11165e-05 0
1.21987 1.74059e-05 0
1.24816 3.18119e-05 0
1.25789 5.29196e-05 0
1.26085 7.80151e-05 0
1.26164 0.000104244 0
1.26182 0.00012903 0
1.26182 0.000150122 0
1.26175 0.000165566 0
1.26153 0.000173683 0
1.26072 0.00017309 0
1.25783 0.000162781 0
1.24831 0.000142344 0
1.22041 0.00011246 0
1.14902 7.58214e-05 0
0.992608 3.81796e-05 0
0.70473 8.23944e-06 0
0.26843 -5.38138e-06 0
-0.268626 1.32304e-05 0
0.268412 1.17489e-07 0
0.7041 1.3165e-05 0
0.991551 1.56609e-05 0
1.14808 1.75938e-05 0
1.21987 2.37029e-05 0
1.24815 3.55413e-05 0
1.25787 5.21515e-05 0
1.26083 7.15146e-05 0
1.26163 9.14637e-05 0
1.26181 0.00011001 0
1.26182 0.000125387 0
1.26176 0.000136044 0
1.26154 0.000140649 0
1.26074 0.000138134 0
1.25786 0.000127781 0
1.24835 0.000109424 0
1.22045 8.38705e-05 0
1.14907 5.36233e-05 0
0.992647 2.3636e-05 0
0.704753 1.07868e-06 0
0.268435 -7.24871e-06 0
-0.268628 1.40151e-05 0
0.268415 1.24511e-07 0
0.704107 1.39612e-05 0
0.99156 1.83136e-05 0
1.14808 2.14442e-05 0
1.21987 2.71935e-05 0
1.24814 3.69587e-05 0
1.25786 5.00926e-05 0
1.26082 6.5069e-05 0
1.26162 8.02239e-05 0
1.2618 9.4017e-05 0
1.26182 0.00010507 0
1.26176 0.000112166 0
1.26155 0.000114266 0
1.26076 0.00011056 0
1.25789 0.000100549 0
1.24839 8.42263e-05 0
1.22049 6.24264e-05 0
1.14911 3.74029e-05 0
0.992679 1.33898e-05 0
0.704771 -3.67156e-06 0
0.268438 -8.31632e-06 0
-0.26863 1.43259e-05 0
0.268416 1.27306e-07 0
0.704113 1.42807e-05 0
0.991566 1.97312e-05 0
1.14809 2.35068e-05 0
1.21987 2.87983e-05 0
1.24814 3.68776e-05 0
1.25786 4.7312e-05 0
1.26082 5.89294e-05 0
1.26162 7.04376e-05 0
1.2618 8.06379e-05 0
1.26182 8.84571e-05 0
1.26177 9.29484e-05 0
1.26157 9.33125e-05 0
1.26078 8.89433e-05 0
1.25792 7.95059e-05 0
1.24842 6.50889e-05 0
1.22053 4.64968e-05 0
1.14914 2.57159e-05 0
0.992705 6.34587e-06 0
0.704786 -6.65761e-06 0
0.26844 -8.81149e-06 0
-0.26863 1.43176e-05 0
0.268416 1.27255e-07 0
0.704117 1.4279e-05 0
0.991572 2.03166e-05 0
1.14809 2.4376e-05 0
1.21987 2.91744e-05 0
1.24814 3.58826e-05 0
1.25786 4.4219e-05 0
1.26082 5.32695e-05 0
1.26162 6.2018e-05 0
1.2618 6.95264e-05 0
1.26183 7.49589e-05 0
1.26178 7.7583e-05 0
1.26158 7.6789e-05 0
1.2608 7.21296e-05 0
1.25794 6.33884e-05 0
1.24845 5.0707e-05 0
1.22056 3.4828e-05 0
1.14917 1.74739e-05 0
0.992727 1.69395e-06 0
0.704797 -8.34956e-06 0
0.268441 -8.89662e-06 0
-0.26863 1.40976e-05 0
0.268416 1.25314e-07 0
0.70412 1.40643e-05 0
0.991577 2.03515e-05 0
1.1481 2.44695e-05 0
1.21987 2.87853e-05 0
1.24814 3.43866e-05 0
1.25786 4.10988e-05 0
1.26082 4.81978e-05 0
1.26162 5.48746e-05 0
1.26181 6.03893e-05 0
1.26183 6.40891e-05 0
1.26179 6.54087e-05 0
1.26159 6.38853e-05 0
1.26082 5.91927e-05 0
1.25796 5.11977e-05 0
1.24847 4.0066e-05 0
1.22058 2.6462e-05 0
1.14919 1.18608e-05 0
0.992746 -1.16231e-06 0
0.704807 -9.08731e-06 0
0.268441 -8.68676e-06 0
-0.268629 1.37397e-05 0
0.268416 1.22143e-07 0
0.704123 1.37107e-05 0
0.991582 2.00315e-05 0
1.1481 2.40782e-05 0
1.21988 2.79536e-05 0
1.24814 3.26745e-05 0
1.25786 3.81418e-05 0
1.26082 4.37728e-05 0
1.26162 4.89142e-05 0
1.26181 5.29764e-05 0
1.26184 5.54471e-05 0
1.2618 5.58888e-05 0
1.26161 5.39511e-05 0
1.26083 4.93972e-05 0
1.25798 4.21511e-05 0
1.24849 3.23828e-05 0
1.22061 2.06725e-05 0
1.14921 8.26911e-06 0
0.992762 -2.65879e-06 0
0.704815 -9.1145e-06 0
0.268442 -8.26248e-06 0
-0.268628 1.32944e-05 0
0.268415 1.1819e-07 0
0.704125 1.32691e-05 0
0.991586 1.94911e-05 0
1.1481 2.34023e-05 0
1.21988 2.69003e-05 0
1.24815 3.09384e-05 0
1.25786 3.54694e-05 0
1.26082 4.00163e-05 0
1.26163 4.40433e-05 0
1.26182 4.70745e-05 0
1.26185 4.87039e-05 0
1.26181 4.85908e-05 0
1.26162 4.64683e-05 0
1.26085 4.21649e-05 0
1.258 3.5641e-05 0
1.24851 2.70585e-05 0
1.22063 1.69133e-05 0
1.14923 6.25039e-06 0
0.992777 -3.11068e-06 0
0.704823 -8.60334e-06 0
0.268442 -7.67909e-06 0
-0.268628 1.27954e-05 0
0.268414 1.13759e-07 0
0.704127 1.27734e-05 0
0.991591 1.88215e-05 0
1.14811 2.25773e-05 0
1.21989 2.57733e-05 0
1.24815 2.93028e-05 0
1.25787 3.31529e-05 0
1.26083 3.69249e-05 0
1.26163 4.01716e-05 0
1.26182 4.25027e-05 0
1.26186 4.35915e-05 0
1.26182 4.3169e-05 0
1.26163 4.10292e-05 0
1.26086 3.70458e-05 0
1.25801 3.12013e-05 0
1.24853 2.36408e-05 0
1.22064 1.47789e-05 0
1.14925 5.47844e-06 0
0.99279 -2.74193e-06 0
0.70483 -7.67273e-06 0
0.268443 -6.9733e-06 0
-0.268627 1.22651e-05 0
0.268414 1.09048e-07 0
0.704129 1.22461e-05 0
0.991595 1.80828e-05 0
1.14811 2.16924e-05 0
1.21989 2.46684e-05 0
1.24815 2.78449e-05 0
1.25787 3.12288e-05 0
1.26083 3.4479e-05 0
1.26164 3.72148e-05 0
1.26183 3.91091e-05 0
1.26186 3.98935e-05 0
1.26183 3.93503e-05 0
1.26164 3.73165e-05 0
1.26088 3.36956e-05 0
1.25803 2.84803e-05 0
1.24855 2.1794e-05 0
1.22066 1.39743e-05 0
1.14927 5.7216e-06 0
0.992803 -1.70681e-06 0
0.704837 -6.4013e-06 0
0.268443 -6.16794e-06 0
-0.268626 1.17173e-05 0
0.268413 1.04181e-07 0
0.704131 1.17012e-05 0
0.991598 1.73137e-05 0
1.14812 2.0804e-05 0
1.21989 2.36439e-05 0
1.24816 2.66073e-05 0
1.25788 2.9709e-05 0
1.26083 3.26492e-05 0
1.26164 3.50958e-05 0
1.26184 3.67678e-05 0
1.26187 3.74376e-05 0
1.26184 3.6923e-05 0
1.26165 3.50888e-05 0
1.26089 3.18561e-05 0
1.25804 2.72192e-05 0
1.24856 2.12761e-05 0
1.22068 1.42923e-05 0
1.14928 6.8223e-06 0
0.992815 -1.05492e-07 0
0.704844 -4.83664e-06 0
0.268445 -5.27525e-06 0
-0.268625 1.11601e-05 0
0.268412 9.92285e-08 0
0.704132 1.11467e-05 0
0.991602 1.65362e-05 0