# vtk DataFile Version 3.0
vtk output
ASCII
DATASET UNSTRUCTURED_GRID
POINTS 1913 double
0.045977 0 0
0.045977 0.0952381 0
0.045977 0.142857 0
0.045977 0.190476 0
0.045977 0.238095 0
0.045977 0.285714 0
0.045977 0.333333 0
0.045977 0.380952 0
0.045977 0.428571 0
0.045977 0.47619 0
0.045977 0.52381 0
0.045977 0.571429 0
0.045977 0.619048 0
0.045977 0.666667 0
0.045977 0.714286 0
0.045977 0.761905 0
0.045977 0.809524 0
0.045977 0.857143 0
0.045977 0.904762 0
0.045977 0.952381 0
0.045977 1 0
0.091954 0 0
0.091954 0.047619 0
0.091954 0.0952381 0
0.091954 0.142857 0
0.091954 0.190476 0
0.091954 0.238095 0
0.091954 0.285714 0
0.091954 0.333333 0
0.091954 0.380952 0
0.091954 0.428571 0
0.091954 0.47619 0
0.091954 0.52381 0
0.091954 0.571429 0
0.091954 0.619048 0
0.091954 0.666667 0
0.091954 0.714286 0
0.091954 0.761905 0
0.091954 0.809524 0
0.091954 0.857143 0
0.091954 0.904762 0
0.091954 0.952381 0
0.091954 1 0
0.137931 0 0
0.137931 0.047619 0
0.137931 0.0952381 0
0.137931 0.142857 0
0.137931 0.190476 0
0.137931 0.238095 0
0.137931 0.285714 0
0.137931 0.333333 0
0.137931 0.380952 0
0.137931 0.428571 0
0.137931 0.47619 0
0.137931 0.52381 0
0.137931 0.571429 0
0.137931 0.619048 0
0.137931 0.666667 0
0.137931 0.714286 0
0.137931 0.761905 0
0.137931 0.809524 0
0.137931 0.857143 0
0.137931 0.904762 0
0.137931 0.952381 0
0.137931 1 0
0.183908 0 0
0.183908 0.047619 0
0.183908 0.0952381 0
0.183908 0.142857 0
0.183908 0.190476 0
0.183908 0.238095 0
0.183908 0.285714 0
0.183908 0.333333 0
0.183908 0.380952 0
0.183908 0.428571 0
0.183908 0.47619 0
0.183908 0.52381 0
0.183908 0.571429 0
0.183908 0.619048 0
0.183908 0.666667 0
0.183908 0.714286 0
0.183908 0.761905 0
0.183908 0.809524 0
0.183908 0.857143 0
0.183908 0.904762 0
0.183908 0.952381 0
0.183908 1 0
0.229885 0 0
0.229885 0.047619 0
0.229885 0.0952381 0
0.229885 0.142857 0
0.229885 0.190476 0
0.229885 0.238095 0
0.229885 0.285714 0
0.229885 0.333333 0
0.229885 0.380952 0
0.229885 0.428571 0
0.229885 0.47619 0
0.229885 0.52381 0
0.229885 0.571429 0
0.229885 0.619048 0
0.229885 0.666667 0
0.229885 0.714286 0
0.229885 0.761905 0
0.229885 0.809524 0
0.229885 0.857143 0
0.229885 0.904762 0
0.229885 0.952381 0
0.229885 1 0
0.275862 0 0
0.275862 0.047619 0
0.275862 0.0952381 0
0.275862 0.142857 0
0.275862 0.190476 0
0.275862 0.238095 0
0.275862 0.285714 0
0.275862 0.333333 0
0.275862 0.380952 0
0.275862 0.428571 0
0.275862 0.47619 0
0.275862 0.52381 0
0.275862 0.571429 0
0.275862 0.619048 0
0.275862 0.666667 0
0.275862 0.714286 0
0.275862 0.761905 0
0.275862 0.809524 0
0.275862 0.857143 0
0.275862 0.904762 0
0.275862 0.952381 0
0.275862 1 0
0.321839 0 0
0.321839 0.047619 0
0.321839 0.0952381 0
0.321839 0.142857 0
0.321839 0.190476 0
0.321839 0.238095 0
0.321839 0.285714 0
0.321839 0.333333 0
0.321839 0.380952 0
0.321839 0.428571 0
0.321839 0.47619 0
0.321839 0.52381 0
0.321839 0.571429 0
0.321839 0.619048 0
0.321839 0.666667 0
0.321839 0.714286 0
0.321839 0.761905 0
0.321839 0.809524 0
0.321839 0.857143 0
0.321839 0.904762 0
0.321839 0.952381 0
0.321839 1 0
0.367816 0 0
0.367816 0.047619 0
0.367816 0.0952381 0
0.367816 0.142857 0
0.367816 0.190476 0
0.367816 0.238095 0
0.367816 0.285714 0
0.367816 0.333333 0
0.367816 0.380952 0
0.367816 0.428571 0
0.367816 0.47619 0
0.367816 0.52381 0
0.367816 0.571429 0
0.367816 0.619048 0
0.367816 0.666667 0
0.367816 0.714286 0
0.367816 0.761905 0
0.367816 0.809524 0
0.367816 0.857143 0
0.367816 0.904762 0
0.367816 0.952381 0
0.367816 1 0
0.413793 0 0
0.413793 0.047619 0
0.413793 0.0952381 0
0.413793 0.142857 0
0.413793 0.190476 0
0.413793 0.238095 0
0.413793 0.285714 0
0.413793 0.333333 0
0.413793 0.380952 0
0.413793 0.428571 0
0.413793 0.47619 0
0.413793 0.52381 0
0.413793 0.571429 0
0.413793 0.619048 0
0.413793 0.666667 0
0.413793 0.714286 0
0.413793 0.761905 0
0.413793 0.809524 0
0.413793 0.857143 0
0.413793 0.904762 0
0.413793 0.952381 0
0.413793 1 0
0.45977 0 0
0.45977 0.047619 0
0.45977 0.0952381 0
0.45977 0.142857 0
0.45977 0.190476 0
0.45977 0.238095 0
0.45977 0.285714 0
0.45977 0.333333 0
0.45977 0.380952 0
0.45977 0.428571 0
0.45977 0.47619 0
0.45977 0.52381 0
0.45977 0.571429 0
0.45977 0.619048 0
0.45977 0.666667 0
0.45977 0.714286 0
0.45977 0.761905 0
0.45977 0.809524 0
0.45977 0.857143 0
0.45977 0.904762 0
0.45977 0.952381 0
0.45977 1 0
0.505747 0 0
0.505747 0.047619 0
0.505747 0.0952381 0
0.505747 0.142857 0
0.505747 0.190476 0
0.505747 0.238095 0
0.505747 0.285714 0
0.505747 0.333333 0
0.505747 0.380952 0
0.505747 0.428571 0
0.505747 0.47619 0
0.505747 0.52381 0
0.505747 0.571429 0
0.505747 0.619048 0
0.505747 0.666667 0
0.505747 0.714286 0
0.505747 0.761905 0
0.505747 0.809524 0
0.505747 0.857143 0
0.505747 0.904762 0
0.505747 0.952381 0
0.505747 1 0
0.551724 0 0
0.551724 0.047619 0
0.551724 0.0952381 0
0.551724 0.142857 0
0.551724 0.190476 0
0.551724 0.238095 0
0.551724 0.285714 0
0.551724 0.333333 0
0.551724 0.380952 0
0.551724 0.428571 0
0.551724 0.47619 0
0.551724 0.52381 0
0.551724 0.571429 0
0.551724 0.619048 0
0.551724 0.666667 0
0.551724 0.714286 0
0.551724 0.761905 0
0.551724 0.809524 0
0.551724 0.857143 0
0.551724 0.904762 0
0.551724 0.952381 0
0.551724 1 0
0.597701 0 0
0.597701 0.047619 0
0.597701 0.0952381 0
0.597701 0.142857 0
0.597701 0.190476 0
0.597701 0.238095 0
0.597701 0.285714 0
0.597701 0.333333 0
0.597701 0.380952 0
0.597701 0.428571 0
0.597701 0.47619 0
0.597701 0.52381 0
0.597701 0.571429 0
0.597701 0.619048 0
0.597701 0.666667 0
0.597701 0.714286 0
0.597701 0.761905 0
0.597701 0.809524 0
0.597701 0.857143 0
0.597701 0.904762 0
0.597701 0.952381 0
0.597701 1 0
0.643678 0 0
0.643678 0.047619 0
0.643678 0.0952381 0
0.643678 0.142857 0
0.643678 0.190476 0
0.643678 0.238095 0
0.643678 0.285714 0
0.643678 0.333333 0
0.643678 0.380952 0
0.643678 0.428571 0
0.643678 0.47619 0
0.643678 0.52381 0
0.643678 0.571429 0
0.643678 0.619048 0
0.643678 0.666667 0
0.643678 0.714286 0
0.643678 0.761905 0
0.643678 0.809524 0
0.643678 0.857143 0
0.643678 0.904762 0
0.643678 0.952381 0
0.643678 1 0
0.689655 0 0
0.689655 0.047619 0
0.689655 0.0952381 0
0.689655 0.142857 0
0.689655 0.190476 0
0.689655 0.238095 0
0.689655 0.285714 0
0.689655 0.333333 0
0.689655 0.380952 0
0.689655 0.428571 0
0.689655 0.47619 0
0.689655 0.52381 0
0.689655 0.571429 0
0.689655 0.619048 0
0.689655 0.666667 0
0.689655 0.714286 0
0.689655 0.761905 0
0.689655 0.809524 0
0.689655 0.857143 0
0.689655 0.904762 0
0.689655 0.952381 0
0.689655 1 0
0.735632 0 0
0.735632 0.047619 0
0.735632 0.0952381 0
0.735632 0.142857 0
0.735632 0.190476 0
0.735632 0.238095 0
0.735632 0.285714 0
0.735632 0.333333 0
0.735632 0.380952 0
0.735632 0.428571 0
0.735632 0.47619 0
0.735632 0.52381 0
0.735632 0.571429 0
0.735632 0.619048 0
0.735632 0.666667 0
0.735632 0.714286 0
0.735632 0.761905 0
0.735632 0.809524 0
0.735632 0.857143 0
0.735632 0.904762 0
0.735632 0.952381 0
0.735632 1 0
0.781609 0 0
0.781609 0.047619 0
0.781609 0.0952381 0
0.781609 0.142857 0
0.781609 0.190476 0
0.781609 0.238095 0
0.781609 0.285714 0
0.781609 0.333333 0
0.781609 0.380952 0
0.781609 0.428571 0
0.781609 0.47619 0
0.781609 0.52381 0
0.781609 0.571429 0
0.781609 0.619048 0
0.781609 0.666667 0
0.781609 0.714286 0
0.781609 0.761905 0
0.781609 0.809524 0
0.781609 0.857143 0
0.781609 0.904762 0
0.781609 0.952381 0
0.781609 1 0
0.827586 0 0
0.827586 0.047619 0
0.827586 0.0952381 0
0.827586 0.142857 0
0.827586 0.190476 0
0.827586 0.238095 0
0.827586 0.285714 0
0.827586 0.333333 0
0.827586 0.380952 0
0.827586 0.428571 0
0.827586 0.47619 0
0.827586 0.52381 0
0.827586 0.571429 0
0.827586 0.619048 0
0.827586 0.666667 0
0.827586 0.714286 0
0.827586 0.761905 0
0.827586 0.809524 0
0.827586 0.857143 0
0.827586 0.904762 0
0.827586 0.952381 0
0.827586 1 0
0.873563 0 0
0.873563 0.047619 0
0.873563 0.0952381 0
0.873563 0.142857 0
0.873563 0.190476 0
0.873563 0.238095 0
0.873563 0.285714 0
0.873563 0.333333 0
0.873563 0.380952 0
0.873563 0.428571 0
0.873563 0.47619 0
0.873563 0.52381 0
0.873563 0.571429 0
0.873563 0.619048 0
0.873563 0.666667 0
0.873563 0.714286 0
0.873563 0.761905 0
0.873563 0.809524 0
0.873563 0.857143 0
0.873563 0.904762 0
0.873563 0.952381 0
0.873563 1 0
0.91954 0 0
0.91954 0.047619 0
0.91954 0.0952381 0
0.91954 0.142857 0
0.91954 0.190476 0
0.91954 0.238095 0
0.91954 0.285714 0
0.91954 0.333333 0
0.91954 0.380952 0
0.91954 0.428571 0
0.91954 0.47619 0
0.91954 0.52381 0
0.91954 0.571429 0
0.91954 0.619048 0
0.91954 0.666667 0
0.91954 0.714286 0
0.91954 0.761905 0
0.91954 0.809524 0
0.91954 0.857143 0
0.91954 0.904762 0
0.91954 0.952381 0
0.91954 1 0
0.965517 0 0
0.965517 0.047619 0
0.965517 0.0952381 0
0.965517 0.142857 0
0.965517 0.190476 0
0.965517 0.238095 0
0.965517 0.285714 0
0.965517 0.333333 0
0.965517 0.380952 0
0.965517 0.428571 0
0.965517 0.47619 0
0.965517 0.52381 0
0.965517 0.571429 0
0.965517 0.619048 0
0.965517 0.666667 0
0.965517 0.714286 0
0.965517 0.761905 0
0.965517 0.809524 0
0.965517 0.857143 0
0.965517 0.904762 0
0.965517 0.952381 0
0.965517 1 0
1.01149 0 0
1.01149 0.047619 0
1.01149 0.0952381 0
1.01149 0.142857 0
1.01149 0.190476 0
1.01149 0.238095 0
1.01149 0.285714 0
1.01149 0.333333 0
1.01149 0.380952 0
1.01149 0.428571 0
1.01149 0.47619 0
1.01149 0.52381 0
1.01149 0.571429 0
1.01149 0.619048 0
1.01149 0.666667 0
1.01149 0.714286 0
1.01149 0.761905 0
1.01149 0.809524 0
1.01149 0.857143 0
1.01149 0.904762 0
1.01149 0.952381 0
1.01149 1 0
1.05747 0 0
1.05747 0.047619 0
1.05747 0.0952381 0
1.05747 0.142857 0
1.05747 0.190476 0
1.05747 0.238095 0
1.05747 0.285714 0
1.05747 0.333333 0
1.05747 0.380952 0
1.05747 0.428571 0
1.05747 0.47619 0
1.05747 0.52381 0
1.05747 0.571429 0
1.05747 0.619048 0
1.05747 0.666667 0
1.05747 0.714286 0
1.05747 0.761905 0
1.05747 0.809524 0
1.05747 0.857143 0
1.05747 0.904762 0
1.05747 0.952381 0
1.05747 1 0
1.10345 0 0
1.10345 0.047619 0
1.10345 0.0952381 0
1.10345 0.142857 0
1.10345 0.190476 0
1.10345 0.238095 0
1.10345 0.285714 0
1.10345 0.333333 0
1.10345 0.380952 0
1.10345 0.428571 0
1.10345 0.47619 0
1.10345 0.52381 0
1.10345 0.571429 0
[...]
POINT_DATA 1913
VECTORS velocity[m/s] double
-0 0.209456 0
0 0.209456 0
0 0.209379 0
0 0.180963 0
0 0.150628 0
0 0.121867 0
0 0.0948427 0
0 0.0692179 0
0 0.0445742 0
0 0.0204973 0
0 -0.00341265 0
0 -0.0275564 0
0 -0.052362 0
0 -0.0783208 0
0 -0.106035 0
0 -0.136282 0
0 -0.170106 0
0 -0.208932 0
0 -0.254262 0
0 -0.302739 0
0 -0.309891 0
-0.872551 0.185232 0
0.872551 0.00163375 0
1.07486 0.185232 0
1.10222 0.208818 0
1.10407 0.184419 0
1.10255 0.153013 0
1.10088 0.123218 0
1.09953 0.0956388 0
1.09858 0.0697034 0
1.09803 0.0448492 0
1.09787 0.0206029 0
1.0981 -0.0034595 0
1.09873 -0.0277509 0
1.09985 -0.0527081 0
1.10154 -0.0788337 0
1.10399 -0.106753 0
1.10744 -0.137306 0
1.11227 -0.171677 0
1.11855 -0.211256 0
1.12159 -0.255075 0
1.08169 -0.286324 0
0.775579 -0.235247 0
-0.695284 0.144678 0
0.695284 0.00129611 0
1.05209 0.144678 0
1.12578 0.189899 0
1.1344 0.178658 0
1.13132 0.151204 0
1.1275 0.122251 0
1.12457 0.0949283 0
1.12258 0.0692048 0
1.12144 0.0445678 0
1.1211 0.0205401 0
1.12155 -0.0032956 0
1.12283 -0.0273341 0
1.12507 -0.0519862 0
1.1285 -0.0777191 0
1.13349 -0.105109 0
1.14063 -0.134894 0
1.15048 -0.167875 0
1.16086 -0.2037 0
1.15176 -0.235362 0
1.03237 -0.234789 0
0.548444 -0.146339 0
-0.556846 0.105546 0
0.556846 0.000944873 0
1.00842 0.105546 0
1.13663 0.161749 0
1.1609 0.164683 0
1.15928 0.144587 0
1.15389 0.11862 0
1.1494 0.0926303 0
1.14636 0.0677312 0
1.14464 0.0437506 0
1.14412 0.0203141 0
1.14476 -0.00294116 0
1.14663 -0.0263595 0
1.14992 -0.0502928 0
1.15494 -0.075129 0
1.16225 -0.101314 0
1.17247 -0.129296 0
1.18507 -0.159003 0
1.19143 -0.187585 0
1.15121 -0.203119 0
0.946974 -0.176837 0
0.407151 -0.0836974 0
-0.455852 0.0738518 0
0.455852 0.000660518 0
0.954158 0.0738518 0
1.1338 0.132239 0
1.18031 0.146255 0
1.18435 0.134292 0
1.17898 0.112645 0
1.17344 0.0888961 0
1.16952 0.0653825 0
1.16727 0.0424546 0
1.16657 0.019938 0
1.16737 -0.00243038 0
1.16974 -0.0249172 0
1.1739 -0.0477911 0
1.18023 -0.0713306 0
1.18926 -0.0957966 0
1.20115 -0.121224 0
1.21267 -0.146513 0
1.20643 -0.166689 0
1.12583 -0.167937 0
0.857046 -0.128096 0
0.32634 -0.04785 0
-0.385185 0.0504912 0
0.385185 0.00045122 0
0.897784 0.0504912 0
1.12027 0.105562 0
1.19186 0.126704 0
1.20525 0.121996 0
1.20191 0.105065 0
1.19615 0.0840881 0
1.19165 0.0623601 0
1.18901 0.0407852 0
1.18817 0.0194421 0
1.18908 -0.00180338 0
1.19183 -0.0231246 0
1.19663 -0.0446961 0
1.20385 -0.0666743 0
1.21381 -0.0891134 0
1.22557 -0.11161 0
1.23215 -0.132152 0
1.20763 -0.144496 0
1.08736 -0.135527 0
0.779567 -0.09186 0
0.28014 -0.0286836 0
-0.33687 0.0343594 0
0.33687 0.000306836 0
0.844612 0.0343594 0
1.09985 0.0833311 0
1.1964 0.108156 0
1.2216 0.109162 0
1.22216 0.0966883 0
1.21713 0.0786465 0
1.21248 0.0589131 0
1.20962 0.038874 0
1.20868 0.0188681 0
1.20967 -0.00109997 0
1.21265 -0.0211073 0
1.21785 -0.0412356 0
1.22551 -0.0615225 0
1.23554 -0.0818212 0
1.2454 -0.101332 0
1.24407 -0.117371 0
1.19897 -0.123283 0
1.0452 -0.108132 0
0.718569 -0.0663221 0
0.252445 -0.0183282 0
-0.303992 0.023711 0
0.303992 0.000211596 0
0.797329 0.023711 0
1.07589 0.0656914 0
1.19543 0.0916729 0
1.23364 0.0967955 0
1.23958 0.0881877 0
1.23618 0.0729785 0
1.23183 0.0552835 0
1.22893 0.0368524 0
1.22796 0.0182601 0
1.22898 -0.00035575 0
1.23209 -0.0189824 0
1.23743 -0.0376186 0
1.24511 -0.0561956 0
1.25437 -0.0743874 0
1.26089 -0.0910717 0
1.24978 -0.103159 0
1.18434 -0.104218 0
1.00484 -0.0860196 0
0.67223 -0.0486355 0
0.234749 -0.0124293 0
-0.281303 0.0168565 0
0.281303 0.000150322 0
0.756797 0.0168565 0
1.0508 0.0520987 0
1.19049 0.0775952 0
1.24195 0.0854612 0
1.25427 0.0800286 0
1.25326 0.0673996 0
1.24963 0.0516707 0
1.24688 0.0348325 0
1.24593 0.0176566 0
1.24697 0.000399596 0
1.25008 -0.016848 0
1.25537 -0.0340156 0
1.26268 -0.0509444 0
1.27048 -0.067157 0
1.27256 -0.0812897 0
1.2508 -0.0900793 0
1.16677 -0.0877177 0
0.96874 -0.0686036 0
0.637272 -0.0363633 0
0.222749 -0.00884094 0
-0.265173 0.012463 0
0.265173 0.000111068 0
0.72277 0.012463 0
1.02618 0.0417842 0
1.18289 0.0658576 0
1.2472 0.0754002 0
1.26646 0.0724835 0
1.26845 0.0621212 0
1.26589 0.0482173 0
1.26347 0.0328972 0
1.26259 0.0170864 0
1.26362 0.00114261 0
1.26666 -0.0147792 0
1.27171 -0.0305528 0
1.27833 -0.0459451 0
1.28413 -0.0603559 0
1.28105 -0.0722569 0
1.24852 -0.0783912 0
1.14832 -0.0737716 0
0.937612 -0.0550503 0
0.610699 -0.0277484 0
0.214213 -0.0065273 0
-0.253247 0.00960325 0
0.253247 8.55317e-05 0
0.69446 0.00960324 0
1.00294 0.0339972 0
1.17368 0.0562046 0
1.25001 0.0666484 0
1.27647 0.0656773 0
1.28187 0.0572622 0
1.28068 0.045011 0
1.27873 0.0310993 0
1.27799 0.0165672 0
1.27899 0.00185557 0
1.28189 -0.012828 0
1.28658 -0.0273132 0
1.29225 -0.041307 0
1.29562 -0.0541116 0
1.28697 -0.0641012 0
1.24406 -0.0681529 0
1.13024 -0.0621584 0
0.911252 -0.0445513 0
0.59021 -0.0216057 0
0.20791 -0.00496862 0
-0.244058 0.0076847 0
0.244058 6.84105e-05 0
0.670907 0.0076847 0
0.981498 0.0281045 0
1.16359 0.0483193 0
1.25095 0.0591284 0
1.28459 0.0596361 0
1.2937 0.0528717 0
1.29411 0.0420937 0
1.29276 0.0294654 0
1.29219 0.0161064 0
1.29317 0.00252562 0
1.29587 -0.0110265 0
1.30009 -0.0243445 0
1.30461 -0.0370858 0
1.30526 -0.0484786 0
1.29088 -0.0568542 0
1.23827 -0.0593066 0
1.11324 -0.0525762 0
0.889097 -0.0364189 0
0.574146 -0.0171535 0
0.203113 -0.00388523 0
-0.236704 0.00634787 0
0.236704 5.64877e-05 0
0.651191 0.00634786 0
0.96198 0.0236119 0
1.15316 0.0418904 0
1.25046 0.0527104 0
1.29112 0.054327 0
1.30411 0.0489517 0
1.3063 0.0394749 0
1.30566 0.0280019 0
1.30531 0.0157036 0
1.30626 0.003144 0
1.30873 -0.00939082 0
1.31239 -0.0216662 0
1.31561 -0.0332985 0
1.31335 -0.0434614 0
1.29325 -0.0504871 0
1.23177 -0.0517342 0
1.09764 -0.0447118 0
0.870496 -0.0301027 0
0.561336 -0.0138761 0
0.199362 -0.00311484 0
-0.23063 0.00537985 0
0.23063 4.78591e-05 0
0.634523 0.00537985 0
0.944332 0.02015 0
1.14271 0.0366417 0
1.2489 0.0472487 0
1.29631 0.0496862 0
1.31326 0.0454756 0
1.31738 0.037142 0
1.31754 0.0267017 0
1.31743 0.0153534 0
1.31836 0.00370523 0
1.32058 -0.00792561 0
1.32362 -0.0192788 0
1.32542 -0.0299359 0
1.32013 -0.0390331 0
1.29445 -0.0449371 0
1.22499 -0.0452922 0
1.08354 -0.0382738 0
0.854829 -0.0251756 0
0.550945 -0.0114293 0
0.196355 -0.00255727 0
-0.225482 0.00465432 0
0.225482 4.13947e-05 0
0.620262 0.00465431 0
0.928409 0.0174487 0
1.13247 0.0323401 0
1.24655 0.0426013 0
1.30038 0.0456377 0
1.32131 0.0424022 0
1.32746 0.0350706 0
1.32849 0.0255496 0
1.32868 0.0150472 0
1.32959 0.00420649 0
1.33155 -0.00662718 0
1.33391 -0.0171696 0
1.3342 -0.0269726 0
1.32583 -0.035149 0
1.2948 -0.0401247 0
1.21822 -0.0398325 0
1.07089 -0.0330064 0
0.841557 -0.0213109 0
0.542379 -0.00957908 0
0.193886 -0.00214771 0
-0.221028 0.00409446 0
0.221028 3.64083e-05 0
0.607909 0.00409445 0
0.914031 0.015312 0
1.12256 0.0287952 0
1.24361 0.0386385 0
1.3035 0.042104 0
1.32838 0.0396842 0
1.33665 0.0332304 0
1.33863 0.0245267 0
1.33915 0.0147754 0
1.34005 0.00464706 0
1.34172 -0.00548666 0
1.34338 -0.0153185 0
1.3421 -0.0243743 0
1.33064 -0.0317557 0
1.29451 -0.0359654 0
1.21163 -0.0352144 0
1.0596 -0.0286923 0
0.83023 -0.0182606 0
0.535204 -0.00816349 0
0.191812 -0.00184286 0
-0.21711 0.00365176 0
0.21711 3.24666e-05 0
0.597078 0.00365175 0
0.901013 0.0135984 0
1.11306 0.0258538 0
1.24027 0.0352472 0
1.30584 0.0390118 0
1.33462 0.0372744 0
1.34506 0.0315897 0
1.34805 0.023613 0
1.34893 0.0145283 0
1.34983 0.00502782 0
1.35122 -0.00449214 0
1.35212 -0.0137014 0
1.34923 -0.022103 0
1.3347 -0.0287978 0
1.29379 -0.0323764 0
1.20533 -0.0313097 0
1.04953 -0.0251508 0
0.820481 -0.0158367 0
0.529102 -0.00706838 0
0.190033 -0.00161304 0
-0.213615 0.00329424 0
0.213616 2.92841e-05 0
0.587475 0.00329423 0
0.88918 0.0122045 0
1.10399 0.0233939 0
1.23663 0.0323308 0
1.30752 0.0362954 0
1.3401 0.0351287 0
1.35276 0.0301187 0
1.35682 0.0227893 0
1.3581 0.0142974 0
1.35903 0.00535091 0
1.36011 -0.00363027 0
1.36023 -0.0122929 0
1.35569 -0.0201207 0
1.33816 -0.0262215 0
1.29276 -0.0292804 0
1.19938 -0.0280054 0
1.04053 -0.0222338 0
0.812015 -0.0138964 0
0.523835 -0.00621194 0
0.188475 -0.00143753 0
-0.210463 0.00300001 0
0.210463 2.66656e-05 0
0.578872 0.003 0
0.878377 0.0110548 0
1.09536 0.0213187 0
1.23281 0.0298081 0
1.30864 0.0338971 0
1.34494 0.0332075 0
1.35984 0.02879 0
1.36502 0.0220386 0
1.36674 0.0140755 0
1.3677 0.00561935 0
1.36847 -0.00288727 0
1.36779 -0.0110684 0
1.36158 -0.0183909 0
1.34111 -0.0239764 0
1.29153 -0.0266072 0
1.19381 -0.025204 0
1.03248 -0.0198209 0
0.804596 -0.0123311 0
0.519225 -0.00553473 0
0.187087 -0.00130164 0
-0.207592 0.00275361 0
0.207593 2.44731e-05 0
0.571095 0.0027536 0
0.868467 0.0100934 0
1.08716 0.0195521 0
1.22886 0.0276117 0
1.30931 0.0317676 0
1.34921 0.0314765 0
1.36635 0.0275802 0
1.37271 0.0213462 0
1.3749 0.0138567 0
1.37591 0.00583679 0
1.37637 -0.0022497 0
1.37486 -0.0100044 0
1.36697 -0.0168799 0
1.34365 -0.022017 0
1.29017 -0.024295 0
1.18861 -0.0228219 0
1.02525 -0.0178145 0
0.798034 -0.0110577 0
0.515138 -0.00499308 0
0.185831 -0.00119482 0
-0.204958 0.00254392 0
0.204958 2.26076e-05 0
0.564008 0.00254391 0
0.859334 0.00927856 0
1.07938 0.0180339 0
1.22485 0.025686 0
1.30959 0.0298651 0
1.35297 0.0299062 0
1.37237 0.0264691 0
1.37994 0.0206999 0
1.38264 0.0136367 0
1.38372 0.00600725 0
1.38386 -0.00170485 0
1.3815 -0.0090795 0
1.37193 -0.0155575 0
1.34585 -0.0203032 0
1.28875 -0.0222897 0
1.18378 -0.0207891 0
1.01873 -0.0161365 0
0.792178 -0.0100125 0
0.511471 -0.00455459 0
0.184677 -0.00110944 0
-0.202523 0.00236278 0
0.202523 2.09964e-05 0
0.557506 0.00236277 0
0.850881 0.00857913 0
1.07199 0.0167167 0
1.22081 0.0239855 0
1.30955 0.0281546 0
1.35629 0.0284723 0
1.37794 0.0254402 0
1.38676 0.0200899 0
1.39001 0.0134124 0
1.39116 0.00613494 0
1.39098 -0.00124098 0
1.38775 -0.00827448 0
1.37652 -0.0143971 0
1.34777 -0.0187994 0
1.2873 -0.0205448 0
1.17929 -0.0190465 0
1.01282 -0.0147238 0
0.786909 -0.00914638 0
0.508144 -0.00419505 0
0.183606 -0.00103992 0
-0.200262 0.00220419 0
0.200262 1.95859e-05 0
0.551504 0.00220418 0
0.843024 0.00797148 0
1.06498 0.0155633 0
1.21678 0.0224732 0
1.30924 0.0266071 0
1.35922 0.0271542 0
1.38311 0.02448 0
1.39321 0.0195083 0
1.39704 0.013182 0
1.39829 0.00622413 0
1.39777 -0.000847433 0
1.39366 -0.00757241 0
1.38077 -0.0133754 0
1.34946 -0.0174752 0
1.28586 -0.0190205 0
1.17511 -0.0175453 0
1.00743 -0.013526 0
0.782128 -0.00842153 0
0.505098 -0.00389628 0
0.182602 -0.000982202 0
-0.198153 0.00206366 0
0.198153 1.83363e-05 0
0.545935 0.00206365 0
0.835694 0.00743768 0
1.0583 0.0145443 0
1.21279 0.0211186 0
1.30871 0.0251985 0
1.3618 0.0259353 0
1.38791 0.0235778 0
1.39931 0.0189495 0
1.40376 0.0129445 0
1.40511 0.00627904 0
1.40426 -0.000514637 0
1.39927 -0.00695844 0
1.38472 -0.0124722 0
1.35095 -0.0163043 0
1.28443 -0.0176829 0
1.17123 -0.0162449 0
1.0025 -0.0125027 0
0.777759 -0.00780855 0
0.502284 -0.00364454 0
0.181654 -0.000933293 0
-0.196178 0.00193783 0
0.196179 1.72175e-05 0
0.540747 0.00193782 0
0.828833 0.006964 0
1.05196 0.0136363 0
1.20885 0.0198972 0
1.308 0.0239091 0
1.36407 0.0248019 0
1.39238 0.0227248 0
1.40511 0.0184091 0
1.41019 0.0126997 0
1.41167 0.00630373 0
1.41049 -0.000234094 0
1.40459 -0.00641971 0
1.38842 -0.0116703 0
1.35228 -0.0152644 0
1.28304 -0.0165035 0
1.16762 -0.0151116 0
0.997971 -0.0116213 0
0.773738 -0.00728461 0
0.499667 -0.00342939 0
0.180753 -0.000890997 0
-0.194324 0.00182416 0
0.194324 1.62069e-05 0
0.535894 0.00182415 0
0.822391 0.00653985 0
1.04591 0.0128211 0
1.20498 0.0187891 0
1.30714 0.0227227 0
1.36608 0.0237428 0
1.39655 0.0219145 0
1.41063 0.0178839 0
1.41637 0.0124478 0
1.41799 0.00630209 0
1.41646 1.70193e-06 0
1.40966 -0.00594515 0
1.39189 -0.0109548 0
1.35347 -0.0143363 0
1.2817 -0.0154583 0
1.16425 -0.0141177 0
0.993784 -0.010856 0
0.770016 -0.00683191 0
0.497216 -0.00324293 0
0.179893 -0.0008537 0
-0.192579 0.00172071 0
0.192579 1.52872e-05 0
0.531341 0.0017207 0
0.816326 0.00615706 0
1.04015 0.012084 0
1.20118 0.0177779 0
1.30616 0.0216258 0
1.36784 0.022749 0
1.40044 0.0211416 0
1.41587 0.0173719 0
1.4223 0.0121896 0
1.42407 0.00627775 0
1.4222 0.000199341 0
1.4145 -0.00552524 0
1.39516 -0.0103133 0
1.35456 -0.0135037 0
1.2804 -0.0145268 0
1.1611 -0.0132403 0
0.989899 -0.0101859 0
0.766551 -0.00643652 0
0.494909 -0.0030791 0
0.179068 -0.000820214 0
-0.190932 0.00162597 0
0.190932 1.44451e-05 0
0.527057 0.00162595 0
0.810603 0.0058092 0
1.03465 0.0114134 0
1.19747 0.0168505 0
1.30507 0.0206074 0
1.3694 0.0218132 0
1.40408 0.0204021 0
1.42088 0.0168717 0
1.42801 0.0119261 0
1.42994 0.00623408 0
1.42773 0.000364587 0
1.41912 -0.00515181 0
1.39824 -0.00973494 0
1.35555 -0.0127531 0
1.27916 -0.0136923 0
1.15815 -0.0124607 0
0.986279 -0.0095941 0
0.763309 -0.00608752 0
0.492728 -0.00293326 0
0.178276 -0.000789664 0
-0.189376 0.00153877 0
0.189376 1.367e-05 0
0.523019 0.00153875 0
0.805193 0.00549123 0
1.0294 0.0107998 0
1.19384 0.015996 0
1.30391 0.0196585 0
1.37076 0.0209294 0
1.40749 0.019693 0
1.42565 0.0163826 0
1.4335 0.0116586 0
1.4356 0.00617421 0
1.43305 0.000502466 0
1.42355 -0.00481792 0
1.40115 -0.00921072 0
1.35645 -0.0120727 0
1.27797 -0.0129402 0
1.15538 -0.0117633 0
0.982893 -0.00906717 0
0.760264 -0.00577632 0
0.490659 -0.00280187 0
0.177514 -0.000761408 0
-0.187904 0.00145819 0
0.187904 1.29538e-05 0
0.519202 0.00145817 0
0.800067 0.00519914 0
1.02439 0.0102358 0
1.1903 0.0152056 0
1.30268 0.0187716 0
1.37195 0.0200927 0
1.41068 0.0190119 0
1.43021 0.0159043 0
1.4388 0.0113883 0
1.44108 0.00610095 0
1.43819 0.000617346 0
1.42779 -0.00451762 0
1.40392 -0.0087329 0
1.35729 -0.0114528 0
1.27684 -0.0122587 0
1.15278 -0.0111353 0
0.979716 -0.00859416 0
0.757392 -0.00549612 0
0.488689 -0.00268218 0
0.176779 -0.000734972 0
-0.186509 0.00138347 0
0.186509 1.22898e-05 0
0.515591 0.00138346 0
0.795204 0.00492971 0
1.01959 0.00971521 0
1.18686 0.0144718 0
1.30141 0.0179404 0
1.373 0.0192992 0
1.41368 0.0183569 0
1.43457 0.0154366 0
1.4439 0.0111166 0
1.44638 0.0060169 0
1.44315 0.000713016 0
1.43186 -0.00424585 0
1.40654 -0.00829496 0
1.35807 -0.0108849 0
1.27575 -0.0116377 0
1.15033 -0.010566 0
0.976724 -0.00816626 0
0.754675 -0.00524156 0
0.486809 -0.00257206 0
0.176069 -0.000710007 0
-0.185185 0.00131402 0
0.185185 1.16726e-05 0
0.512167 0.00131401 0
0.790584 0.0046803 0
1.01499 0.00923303 0
1.18351 0.0137886 0
1.30009 0.0171596 0
1.37391 0.0185454 0
1.4165 0.0177268 0
1.43875 0.0149798 0
1.44883 0.0108447 0
1.4515 0.00592435 0
1.44794 0.000792759 0
1.43577 -0.0039983 0
1.40904 -0.00789132 0
1.3588 -0.0103619 0
1.27472 -0.0110686 0
1.14801 -0.0100467 0
0.973901 -0.00777627 0
0.752098 -0.00500835 0
0.485011 -0.00246988 0
0.175384 -0.000686256 0
-0.183927 0.00124933 0
0.183928 1.10976e-05 0
0.508916 0.00124931 0
0.786188 0.00444876 0
1.0106 0.00878508 0
1.18026 0.0131509 0
1.29876 0.0164249 0
1.3747 0.0178287 0
1.41915 0.0171205 0
1.44274 0.014534 0
1.45358 0.010574 0
1.45645 0.00582536 0
1.45256 0.00085941 0
1.43953 -0.00377128 0
1.41143 -0.00751727 0
1.35948 -0.009878 0
1.27373 -0.0105443 0
1.14582 -0.00957013 0
0.971228 -0.00741837 0
0.749647 -0.00479308 0
0.483289 -0.00237434 0
0.174721 -0.000663527 0
-0.182732 0.00118896 0
0.182732 1.05611e-05 0
0.505827 0.00118894 0
0.782001 0.00423329 0
1.00638 0.00836788 0
1.1771 0.0125543 0
1.2974 0.0157323 0
1.37538 0.0171466 0
1.42165 0.016537 0
1.44656 0.0140996 0
1.45816 0.0103055 0
1.46125 0.00572178 0
1.45703 0.000915414 0
1.44314 -0.00356167 0
1.41371 -0.00716877 0
1.36012 -0.00942791 0
1.27279 -0.0100589 0
1.14374 -0.00913021 0
0.968694 -0.00708777 0
0.747312 -0.00459298 0
0.481637 -0.00228443 0
0.174081 -0.000641676 0
-0.181594 0.00113254 0
0.181595 1.00598e-05 0
0.502888 0.00113252 0
0.778009 0.00403237 0
1.00234 0.00797849 0
1.17403 0.0119953 0
1.29603 0.0150788 0
1.37597 0.016497 0
1.42401 0.0159757 0
1.45023 0.0136769 0
1.46259 0.0100404 0
1.46589 0.0056152 0
1.46136 0.000962874 0
1.44662 -0.00336678 0
1.41589 -0.0068424 0
1.36073 -0.00900733 0
1.27189 -0.00960712 0
1.14177 -0.00872191 0
0.966285 -0.00678054 0
0.745083 -0.00440585 0
0.480051 -0.00219933 0
0.173461 -0.000620597 0
-0.180511 0.00107977 0
0.180511 9.59087e-06 0
0.500088 0.00107975 0
0.774199 0.00384468 0
0.998461 0.00761438 0
1.17105 0.0114705 0
1.29467 0.0144614 0
1.37647 0.0158782 0
1.42622 0.0154358 0
1.45374 0.0132663 0
1.46686 0.00977957 0
1.47038 0.00550703 0
1.46554 0.00100359 0
1.44998 -0.00318434 0
1.41798 -0.00653524 0
1.36131 -0.00861254 0
1.27104 -0.00918472 0
1.13989 -0.00834098 0
0.963992 -0.00649347 0
0.742953 -0.00422988 0
0.478527 -0.00211843 0
0.172862 -0.000600206 0
-0.179477 0.00103034 0
0.179478 9.1517e-06 0
0.497419 0.00103032 0
0.77056 0.00366911 0
0.994737 0.0072734 0
1.16816 0.0109773 0
1.2933 0.0138776 0
1.3769 0.0152886 0
1.42832 0.014917 0
1.4571 0.0128679 0
1.47099 0.00952389 0
1.47473 0.00539848 0
1.46958 0.00103911 0
1.45322 -0.00301242 0
1.41999 -0.00624478 0
1.36186 -0.00824035 0
1.27023 -0.00878802 0
1.13811 -0.00798388 0
0.961807 -0.00622386 0
0.740914 -0.0040636 0
0.477061 -0.00204118 0
0.172283 -0.000580441 0
-0.178492 0.000984017 0
0.178492 8.74007e-06 0
0.494871 0.000983995 0
0.76708 0.00350466 0
0.991161 0.00695362 0
1.16536 0.0105131 0
1.29194 0.0133251 0
1.37726 0.0147266 0
1.4303 0.0144185 0
1.46033 0.0124821 0
1.47497 0.00927407 0
1.47894 0.00529061 0
1.47349 0.00107075 0
1.45634 -0.00284935 0
1.42191 -0.00596887 0
1.36239 -0.00788804 0
1.26945 -0.00841389 0
1.13641 -0.00764762 0
0.959721 -0.00596949 0
0.738961 -0.00390579 0
0.475651 -0.00196719 0
0.171722 -0.00056125 0
-0.17755 0.000940556 0
0.17755 8.35391e-06 0
0.492437 0.000940534 0
0.76375 0.00335045 0
0.987725 0.00665338 0
1.16265 0.0100759 0
1.29058 0.012802 0
1.37756 0.014191 0
1.43217 0.0139398 0
1.46343 0.0121089 0
1.47882 0.00903069 0
1.48301 0.00518429 0
1.47728 0.0010996 0
1.45935 -0.00269375 0
1.42377 -0.0057057 0
1.3629 -0.00755327 0
1.26871 -0.00805965 0
1.13479 -0.00732967 0
0.957728 -0.00572849 0
0.73709 -0.00375544 0
0.474293 -0.00189609 0
0.171181 -0.000542591 0
-0.17665 0.000899751 0
0.17665 7.99135e-06 0
0.490111 0.000899728 0
0.760561 0.00320568 0
0.98442 0.00637116 0
1.16002 0.00966367 0
1.28924 0.0123065 0
1.3778 0.0136804 0
1.43394 0.0134805 0
1.4664 0.0117484 0
1.48253 0.00879426 0
1.48695 0.00508025 0
1.48094 0.00112661 0
1.46226 -0.00254442 0
1.42555 -0.00545369 0
1.36339 -0.00723404 0
1.268 -0.00772302 0
1.13324 -0.00702789 0
0.955823 -0.00549929 0
0.735295 -0.00361173 0
0.472986 -0.00182761 0
0.170657 -0.000524432 0
-0.175789 0.000861407 0
0.175789 7.65067e-06 0
0.487884 0.000861383 0
0.757505 0.00306964 0
0.981241 0.0061056 0
1.15746 0.00927466 0
1.28791 0.0118367 0
1.37799 0.0131936 0
1.43561 0.01304 0
1.46925 0.0114007 0
1.48612 0.00856514 0
1.49077 0.0049791 0
1.48448 0.00115254 0
1.46507 -0.00240036 0
1.42727 -0.00521149 0
1.36386 -0.0069286 0
1.26733 -0.00740203 0
1.13177 -0.00674044 0
0.954001 -0.00528057 0
0.733572 -0.00347393 0
0.471728 -0.00176149 0
0.17015 -0.00050674 0
-0.174965 0.000825344 0
0.174965 7.33027e-06 0
0.485752 0.00082532 0
0.754573 0.00294167 0
0.978182 0.00585548 0
1.15499 0.00890725 0
1.2866 0.0113911 0
1.37814 0.0127296 0
1.43719 0.0126176 0
1.47199 0.0110656 0
1.48958 0.00834361 0
1.49447 0.00488132 0
1.48792 0.00117804 0
1.46778 -0.00226072 0
1.42893 -0.00497796 0
1.36432 -0.00663547 0
1.26669 -0.00709499 0
1.13036 -0.00646576 0
0.952257 -0.00507119 0
0.731919 -0.00334145 0
0.470517 -0.00169753 0
0.169661 -0.00048949 0
-0.174175 0.000791394 0
0.174176 7.02864e-06 0
0.483709 0.00079137 0
0.75176 0.00282118 0
0.975235 0.00561966 0
1.15259 0.00855994 0
1.28531 0.0109683 0
1.37825 0.012287 0
1.43869 0.0122128 0
1.47462 0.010743 0
1.49292 0.00812983 0
1.49804 0.00478726 0
1.49124 0.00120361 0
1.4704 -0.00212481 0
1.43053 -0.00475211 0
1.36476 -0.00635335 0
1.26609 -0.00680044 0
1.12901 -0.00620249 0
0.950587 -0.00487018 0
0.730331 -0.00321375 0
0.46935 -0.00163554 0
0.169189 -0.000472655 0
-0.173418 0.000759399 0
0.173418 6.74439e-06 0
0.481749 0.000759374 0
0.749058 0.00270759 0
0.972396 0.00539708 0
1.15027 0.00823134 0
1.28404 0.0105668 0
1.37832 0.011865 0
1.44011 0.0118248 0