# vtk DataFile Version 3.0
vtk output
ASCII
DATASET UNSTRUCTURED_GRID
POINTS 1913 double
0.045977 0 0
0.045977 0.0952381 0
0.045977 0.142857 0
0.045977 0.190476 0
0.045977 0.238095 0
0.045977 0.285714 0
0.045977 0.333333 0
0.045977 0.380952 0
0.045977 0.428571 0
0.045977 0.47619 0
0.045977 0.52381 0
0.045977 0.571429 0
0.045977 0.619048 0
0.045977 0.666667 0
0.045977 0.714286 0
0.045977 0.761905 0
0.045977 0.809524 0
0.045977 0.857143 0
0.045977 0.904762 0
0.045977 0.952381 0
0.045977 1 0
0.091954 0 0
0.091954 0.047619 0
0.091954 0.0952381 0
0.091954 0.142857 0
0.091954 0.190476 0
0.091954 0.238095 0
0.091954 0.285714 0
0.091954 0.333333 0
0.091954 0.380952 0
0.091954 0.428571 0
0.091954 0.47619 0
0.091954 0.52381 0
0.091954 0.571429 0
0.091954 0.619048 0
0.091954 0.666667 0
0.091954 0.714286 0
0.091954 0.761905 0
0.091954 0.809524 0
0.091954 0.857143 0
0.091954 0.904762 0
0.091954 0.952381 0
0.091954 1 0
0.137931 0 0
0.137931 0.047619 0
0.137931 0.0952381 0
0.137931 0.142857 0
0.137931 0.190476 0
0.137931 0.238095 0
0.137931 0.285714 0
0.137931 0.333333 0
0.137931 0.380952 0
0.137931 0.428571 0
0.137931 0.47619 0
0.137931 0.52381 0
0.137931 0.571429 0
0.137931 0.619048 0
0.137931 0.666667 0
0.137931 0.714286 0
0.137931 0.761905 0
0.137931 0.809524 0
0.137931 0.857143 0
0.137931 0.904762 0
0.137931 0.952381 0
0.137931 1 0
0.183908 0 0
0.183908 0.047619 0
0.183908 0.0952381 0
0.183908 0.142857 0
0.183908 0.190476 0
0.183908 0.238095 0
0.183908 0.285714 0
0.183908 0.333333 0
0.183908 0.380952 0
0.183908 0.428571 0
0.183908 0.47619 0
0.183908 0.52381 0
0.183908 0.571429 0
0.183908 0.619048 0
0.183908 0.666667 0
0.183908 0.714286 0
0.183908 0.761905 0
0.183908 0.809524 0
0.183908 0.857143 0
0.183908 0.904762 0
0.183908 0.952381 0
0.183908 1 0
0.229885 0 0
0.229885 0.047619 0
0.229885 0.0952381 0
0.229885 0.142857 0
0.229885 0.190476 0
0.229885 0.238095 0
0.229885 0.285714 0
0.229885 0.333333 0
0.229885 0.380952 0
0.229885 0.428571 0
0.229885 0.47619 0
0.229885 0.52381 0
0.229885 0.571429 0
0.229885 0.619048 0
0.229885 0.666667 0
0.229885 0.714286 0
0.229885 0.761905 0
0.229885 0.809524 0
0.229885 0.857143 0
0.229885 0.904762 0
0.229885 0.952381 0
0.229885 1 0
0.275862 0 0
0.275862 0.047619 0
0.275862 0.0952381 0
0.275862 0.142857 0
0.275862 0.190476 0
0.275862 0.238095 0
0.275862 0.285714 0
0.275862 0.333333 0
0.275862 0.380952 0
0.275862 0.428571 0
0.275862 0.47619 0
0.275862 0.52381 0
0.275862 0.571429 0
0.275862 0.619048 0
0.275862 0.666667 0
0.275862 0.714286 0
0.275862 0.761905 0
0.275862 0.809524 0
0.275862 0.857143 0
0.275862 0.904762 0
0.275862 0.952381 0
0.275862 1 0
0.321839 0 0
0.321839 0.047619 0
0.321839 0.0952381 0
0.321839 0.142857 0
0.321839 0.190476 0
0.321839 0.238095 0
0.321839 0.285714 0
0.321839 0.333333 0
0.321839 0.380952 0
0.321839 0.428571 0
0.321839 0.47619 0
0.321839 0.52381 0
0.321839 0.571429 0
0.321839 0.619048 0
0.321839 0.666667 0
0.321839 0.714286 0
0.321839 0.761905 0
0.321839 0.809524 0
0.321839 0.857143 0
0.321839 0.904762 0
0.321839 0.952381 0
0.321839 1 0
0.367816 0 0
0.367816 0.047619 0
0.367816 0.0952381 0
0.367816 0.142857 0
0.367816 0.190476 0
0.367816 0.238095 0
0.367816 0.285714 0
0.367816 0.333333 0
0.367816 0.380952 0
0.367816 0.428571 0
0.367816 0.47619 0
0.367816 0.52381 0
0.367816 0.571429 0
0.367816 0.619048 0
0.367816 0.666667 0
0.367816 0.714286 0
0.367816 0.761905 0
0.367816 0.809524 0
0.367816 0.857143 0
0.367816 0.904762 0
0.367816 0.952381 0
0.367816 1 0
0.413793 0 0
0.413793 0.047619 0
0.413793 0.0952381 0
0.413793 0.142857 0
0.413793 0.190476 0
0.413793 0.238095 0
0.413793 0.285714 0
0.413793 0.333333 0
0.413793 0.380952 0
0.413793 0.428571 0
0.413793 0.47619 0
0.413793 0.52381 0
0.413793 0.571429 0
0.413793 0.619048 0
0.413793 0.666667 0
0.413793 0.714286 0
0.413793 0.761905 0
0.413793 0.809524 0
0.413793 0.857143 0
0.413793 0.904762 0
0.413793 0.952381 0
0.413793 1 0
0.45977 0 0
0.45977 0.047619 0
0.45977 0.0952381 0
0.45977 0.142857 0
0.45977 0.190476 0
0.45977 0.238095 0
0.45977 0.285714 0
0.45977 0.333333 0
0.45977 0.380952 0
0.45977 0.428571 0
0.45977 0.47619 0
0.45977 0.52381 0
0.45977 0.571429 0
0.45977 0.619048 0
0.45977 0.666667 0
0.45977 0.714286 0
0.45977 0.761905 0
0.45977 0.809524 0
0.45977 0.857143 0
0.45977 0.904762 0
0.45977 0.952381 0
0.45977 1 0
0.505747 0 0
0.505747 0.047619 0
0.505747 0.0952381 0
0.505747 0.142857 0
0.505747 0.190476 0
0.505747 0.238095 0
0.505747 0.285714 0
0.505747 0.333333 0
0.505747 0.380952 0
0.505747 0.428571 0
0.505747 0.47619 0
0.505747 0.52381 0
0.505747 0.571429 0
0.505747 0.619048 0
0.505747 0.666667 0
0.505747 0.714286 0
0.505747 0.761905 0
0.505747 0.809524 0
0.505747 0.857143 0
0.505747 0.904762 0
0.505747 0.952381 0
0.505747 1 0
0.551724 0 0
0.551724 0.047619 0
0.551724 0.0952381 0
0.551724 0.142857 0
0.551724 0.190476 0
0.551724 0.238095 0
0.551724 0.285714 0
0.551724 0.333333 0
0.551724 0.380952 0
0.551724 0.428571 0
0.551724 0.47619 0
0.551724 0.52381 0
0.551724 0.571429 0
0.551724 0.619048 0
0.551724 0.666667 0
0.551724 0.714286 0
0.551724 0.761905 0
0.551724 0.809524 0
0.551724 0.857143 0
0.551724 0.904762 0
0.551724 0.952381 0
0.551724 1 0
0.597701 0 0
0.597701 0.047619 0
0.597701 0.0952381 0
0.597701 0.142857 0
0.597701 0.190476 0
0.597701 0.238095 0
0.597701 0.285714 0
0.597701 0.333333 0
0.597701 0.380952 0
0.597701 0.428571 0
0.597701 0.47619 0
0.597701 0.52381 0
0.597701 0.571429 0
0.597701 0.619048 0
0.597701 0.666667 0
0.597701 0.714286 0
0.597701 0.761905 0
0.597701 0.809524 0
0.597701 0.857143 0
0.597701 0.904762 0
0.597701 0.952381 0
0.597701 1 0
0.643678 0 0
0.643678 0.047619 0
0.643678 0.0952381 0
0.643678 0.142857 0
0.643678 0.190476 0
0.643678 0.238095 0
0.643678 0.285714 0
0.643678 0.333333 0
0.643678 0.380952 0
0.643678 0.428571 0
0.643678 0.47619 0
0.643678 0.52381 0
0.643678 0.571429 0
0.643678 0.619048 0
0.643678 0.666667 0
0.643678 0.714286 0
0.643678 0.761905 0
0.643678 0.809524 0
0.643678 0.857143 0
0.643678 0.904762 0
0.643678 0.952381 0
0.643678 1 0
0.689655 0 0
0.689655 0.047619 0
0.689655 0.0952381 0
0.689655 0.142857 0
0.689655 0.190476 0
0.689655 0.238095 0
0.689655 0.285714 0
0.689655 0.333333 0
0.689655 0.380952 0
0.689655 0.428571 0
0.689655 0.47619 0
0.689655 0.52381 0
0.689655 0.571429 0
0.689655 0.619048 0
0.689655 0.666667 0
0.689655 0.714286 0
0.689655 0.761905 0
0.689655 0.809524 0
0.689655 0.857143 0
0.689655 0.904762 0
0.689655 0.952381 0
0.689655 1 0
0.735632 0 0
0.735632 0.047619 0
0.735632 0.0952381 0
0.735632 0.142857 0
0.735632 0.190476 0
0.735632 0.238095 0
0.735632 0.285714 0
0.735632 0.333333 0
0.735632 0.380952 0
0.735632 0.428571 0
0.735632 0.47619 0
0.735632 0.52381 0
0.735632 0.571429 0
0.735632 0.619048 0
0.735632 0.666667 0
0.735632 0.714286 0
0.735632 0.761905 0
0.735632 0.809524 0
0.735632 0.857143 0
0.735632 0.904762 0
0.735632 0.952381 0
0.735632 1 0
0.781609 0 0
0.781609 0.047619 0
0.781609 0.0952381 0
0.781609 0.142857 0
0.781609 0.190476 0
0.781609 0.238095 0
0.781609 0.285714 0
0.781609 0.333333 0
0.781609 0.380952 0
0.781609 0.428571 0
0.781609 0.47619 0
0.781609 0.52381 0
0.781609 0.571429 0
0.781609 0.619048 0
0.781609 0.666667 0
0.781609 0.714286 0
0.781609 0.761905 0
0.781609 0.809524 0
0.781609 0.857143 0
0.781609 0.904762 0
0.781609 0.952381 0
0.781609 1 0
0.827586 0 0
0.827586 0.047619 0
0.827586 0.0952381 0
0.827586 0.142857 0
0.827586 0.190476 0
0.827586 0.238095 0
0.827586 0.285714 0
0.827586 0.333333 0
0.827586 0.380952 0
0.827586 0.428571 0
0.827586 0.47619 0
0.827586 0.52381 0
0.827586 0.571429 0
0.827586 0.619048 0
0.827586 0.666667 0
0.827586 0.714286 0
0.827586 0.761905 0
0.827586 0.809524 0
0.827586 0.857143 0
0.827586 0.904762 0
0.827586 0.952381 0
0.827586 1 0
0.873563 0 0
0.873563 0.047619 0
0.873563 0.0952381 0
0.873563 0.142857 0
0.873563 0.190476 0
0.873563 0.238095 0
0.873563 0.285714 0
0.873563 0.333333 0
0.873563 0.380952 0
0.873563 0.428571 0
0.873563 0.47619 0
0.873563 0.52381 0
0.873563 0.571429 0
0.873563 0.619048 0
0.873563 0.666667 0
0.873563 0.714286 0
0.873563 0.761905 0
0.873563 0.809524 0
0.873563 0.857143 0
0.873563 0.904762 0
0.873563 0.952381 0
0.873563 1 0
0.91954 0 0
0.91954 0.047619 0
0.91954 0.0952381 0
0.91954 0.142857 0
0.91954 0.190476 0
0.91954 0.238095 0
0.91954 0.285714 0
0.91954 0.333333 0
0.91954 0.380952 0
0.91954 0.428571 0
0.91954 0.47619 0
0.91954 0.52381 0
0.91954 0.571429 0
0.91954 0.619048 0
0.91954 0.666667 0
0.91954 0.714286 0
0.91954 0.761905 0
0.91954 0.809524 0
0.91954 0.857143 0
0.91954 0.904762 0
0.91954 0.952381 0
0.91954 1 0
0.965517 0 0
0.965517 0.047619 0
0.965517 0.0952381 0
0.965517 0.142857 0
0.965517 0.190476 0
0.965517 0.238095 0
0.965517 0.285714 0
0.965517 0.333333 0
0.965517 0.380952 0
0.965517 0.428571 0
0.965517 0.47619 0
0.965517 0.52381 0
0.965517 0.571429 0
0.965517 0.619048 0
0.965517 0.666667 0
0.965517 0.714286 0
0.965517 0.761905 0
0.965517 0.809524 0
0.965517 0.857143 0
0.965517 0.904762 0
0.965517 0.952381 0
0.965517 1 0
1.01149 0 0
1.01149 0.047619 0
1.01149 0.0952381 0
1.01149 0.142857 0
1.01149 0.190476 0
1.01149 0.238095 0
1.01149 0.285714 0
1.01149 0.333333 0
1.01149 0.380952 0
1.01149 0.428571 0
1.01149 0.47619 0
1.01149 0.52381 0
1.01149 0.571429 0
1.01149 0.619048 0
1.01149 0.666667 0
1.01149 0.714286 0
1.01149 0.761905 0
1.01149 0.809524 0
1.01149 0.857143 0
1.01149 0.904762 0
1.01149 0.952381 0
1.01149 1 0
1.05747 0 0
1.05747 0.047619 0
1.05747 0.0952381 0
1.05747 0.142857 0
1.05747 0.190476 0
1.05747 0.238095 0
1.05747 0.285714 0
1.05747 0.333333 0
1.05747 0.380952 0
1.05747 0.428571 0
1.05747 0.47619 0
1.05747 0.52381 0
1.05747 0.571429 0
1.05747 0.619048 0
1.05747 0.666667 0
1.05747 0.714286 0
1.05747 0.761905 0
1.05747 0.809524 0
1.05747 0.857143 0
1.05747 0.904762 0
1.05747 0.952381 0
1.05747 1 0
1.10345 0 0
1.10345 0.047619 0
1.10345 0.0952381 0
1.10345 0.142857 0
1.10345 0.190476 0
1.10345 0.238095 0
1.10345 0.285714 0
1.10345 0.333333 0
1.10345 0.380952 0
1.10345 0.428571 0
1.10345 0.47619 0
1.10345 0.52381 0
1.10345 0.571429 0
[...]
POINT_DATA 1913
VECTORS velocity[m/s] double
-0 0.201885 0
0 0.201953 0
0 0.196308 0
0 0.165077 0
0 0.134347 0
0 0.107159 0
0 0.0832657 0
0 0.0619721 0
0 0.0425642 0
0 0.0243877 0
0 0.00684647 0
0 -0.0106282 0
0 -0.0286216 0
0 -0.0477906 0
0 -0.0689364 0
0 -0.0931032 0
0 -0.121722 0
0 -0.15681 0
0 -0.200933 0
0 -0.253432 0
0 -0.276975 0
-0.870451 0.177627 0
0.870448 0.00156667 0
1.07094 0.177695 0
1.09576 0.194343 0
1.09543 0.166373 0
1.09216 0.134478 0
1.08912 0.106486 0
1.08673 0.0824012 0
1.08501 0.0612056 0
1.08389 0.0419984 0
1.08331 0.0240548 0
1.08325 0.00676056 0
1.08372 -0.0104487 0
1.08478 -0.0281434 0
1.08658 -0.0469612 0
1.08935 -0.0676859 0
1.09346 -0.0913665 0
1.09948 -0.119495 0
1.10795 -0.154089 0
1.11574 -0.196169 0
1.0875 -0.234985 0
0.797127 -0.209671 0
-0.700537 0.136275 0
0.700468 0.00122126 0
1.05491 0.136365 0
1.12282 0.171959 0
1.12627 0.155811 0
1.11923 0.127989 0
1.11242 0.101593 0
1.10725 0.0786285 0
1.1036 0.0584455 0
1.10126 0.0401646 0
1.10006 0.0230736 0
1.09991 0.00659877 0
1.10085 -0.00976534 0
1.103 -0.0265136 0
1.10664 -0.0441853 0
1.11226 -0.0634278 0
1.12067 -0.0850754 0
1.13293 -0.110173 0
1.14863 -0.139419 0
1.15327 -0.169714 0
1.06311 -0.182187 0
0.594738 -0.126651 0
-0.570219 0.0950096 0
0.570061 0.000851315 0
1.0206 0.0951384 0
1.13846 0.137647 0
1.15318 0.13383 0
1.14477 0.113846 0
1.13464 0.0919092 0
1.12678 0.0718019 0
1.1213 0.0537177 0
1.11781 0.0371206 0
1.11601 0.0214764 0
1.11576 0.00634237 0
1.11707 -0.00866467 0
1.12011 -0.0239059 0
1.12527 -0.0397515 0
1.13321 -0.0566038 0
1.14495 -0.0748906 0
1.16122 -0.0948706 0
1.17793 -0.115595 0
1.16537 -0.131211 0
1.00954 -0.123514 0
0.472509 -0.0667529 0
-0.479387 0.0602081 0
0.479104 0.000539491 0
0.979606 0.0603638 0
1.1422 0.100221 0
1.17253 0.105322 0
1.166 0.0940796 0
1.15411 0.0783429 0
1.14429 0.0624474 0
1.13737 0.0473702 0
1.13296 0.0330847 0
1.13067 0.0193651 0
1.1303 0.00597802 0
1.13183 -0.00728798 0
1.13545 -0.0206225 0
1.14159 -0.0341886 0
1.15092 -0.0480994 0
1.16429 -0.0623298 0
1.18128 -0.0763988 0
1.19306 -0.0883207 0
1.15799 -0.0920489 0
0.95479 -0.075299 0
0.408113 -0.0318512 0
-0.421855 0.0342243 0
0.421423 0.000306881 0
0.941176 0.0343705 0
1.13732 0.0663632 0
1.18343 0.0761977 0
1.18124 0.0723899 0
1.1695 0.0629584 0
1.1589 0.0517194 0
1.15122 0.0400673 0
1.14626 0.0284306 0
1.14364 0.0169115 0
1.14315 0.00551004 0
1.14475 -0.00579951 0
1.1486 -0.01703 0
1.15507 -0.0281449 0
1.16471 -0.0389994 0
1.17793 -0.0492138 0
1.19285 -0.0578647 0
1.19671 -0.0627594 0
1.14188 -0.0593361 0
0.912896 -0.0417381 0
0.377416 -0.0135972 0
-0.389185 0.0171569 0
0.388613 0.000154071 0
0.910339 0.0172631 0
1.12788 0.039986 0
1.18716 0.0510355 0
1.1904 0.0522619 0
1.1804 0.0479788 0
1.1702 0.0409484 0
1.1625 0.0325904 0
1.15743 0.0235987 0
1.1547 0.0143241 0
1.15412 0.00496216 0
1.15564 -0.00435103 0
1.15938 -0.013479 0
1.1656 -0.0222296 0
1.17462 -0.0302823 0
1.18633 -0.0370688 0
1.19763 -0.0415563 0
1.19346 -0.0419214 0
1.12494 -0.0355182 0
0.88578 -0.0210156 0
0.364342 -0.00479482 0
-0.372846 0.00736624 0
0.372172 6.63223e-05 0
0.888452 0.00742524 0
1.11726 0.0220019 0
1.18603 0.0319945 0
1.19458 0.0358017 0
1.18724 0.0349846 0
1.17831 0.0311944 0
1.17123 0.0256104 0
1.16643 0.0189871 0
1.16379 0.0118008 0
1.16316 0.00437086 0
1.16451 -0.0030554 0
1.16788 -0.0102395 0
1.17342 -0.0168945 0
1.18122 -0.022619 0
1.19072 -0.0268103 0
1.19803 -0.0285598 0
1.18733 -0.026628 0
1.11099 -0.0199287 0
0.870172 -0.00945314 0
0.359766 -0.000931269 0
-0.365873 0.00249075 0
0.365143 2.25454e-05 0
0.874428 0.00251291 0
1.10766 0.0111312 0
1.1824 0.0190597 0
1.19542 0.0235922 0
1.19095 0.024666 0
1.18375 0.0230424 0
1.17767 0.019556 0
1.17342 0.014876 0
1.17101 0.00949343 0
1.17038 0.00377527 0
1.17149 -0.00197635 0
1.17435 -0.00747269 0
1.179 -0.0123909 0
1.18532 -0.0163257 0
1.19246 -0.0187419 0
1.19621 -0.018956 0
1.18091 -0.0162694 0
1.10093 -0.0105607 0
0.861995 -0.0035861 0
0.358918 0.000532859 0
-0.363563 0.000420326 0
0.362812 3.90282e-06 0
0.866156 0.000421097 0
1.10006 0.00522913 0
1.17807 0.010997 0
1.19443 0.0151793 0
1.19256 0.0169986 0
1.18717 0.0166367 0
1.18224 0.0146007 0
1.17866 0.0114076 0
1.17658 0.00749153 0
1.17598 0.00320858 0
1.17684 -0.00113264 0
1.17915 -0.00523676 0
1.18284 -0.00878965 0
1.1877 -0.0114303 0
1.19271 -0.0127349 0
1.19367 -0.0122476 0
1.17545 -0.00965826 0
1.09424 -0.0053022 0
0.858067 -0.000889604 0
0.359482 0.00092995 0
-0.363231 -0.000281399 0
0.36248 -2.4481e-06 0
0.861561 -0.000289702 0
1.09453 0.00231198 0
1.17408 0.00628102 0
1.19272 0.00967635 0
1.19296 0.0115671 0
1.18918 0.01183 0
1.18536 0.0107236 0
1.18249 0.00860707 0
1.18076 0.00582694 0
1.18021 0.0026935 0
1.18085 -0.000510564 0
1.18262 -0.00351314 0
1.18544 -0.00603588 0
1.189 -0.00778276 0
1.19229 -0.00844428 0
1.19122 -0.00774572 0
1.17129 -0.00560796 0
1.09003 -0.00250119 0
0.856358 0.000206462 0
0.360427 0.000909311 0
-0.363569 -0.000416129 0
0.362826 -3.69149e-06 0
0.859095 -0.000426389 0
1.09075 0.000980977 0
1.17085 0.00362947 0
1.19094 0.00618933 0
1.19275 0.00783942 0
1.19029 0.00834064 0
1.18745 0.007792 0
1.18521 0.00642231 0
1.18382 0.00448853 0
1.18335 0.00224178 0
1.18379 -7.8019e-05 0
1.1851 -0.00223795 0
1.18717 -0.00400712 0
1.18969 -0.00515651 0
1.19166 -0.00547259 0
1.1892 -0.00480475 0
1.16834 -0.00318738 0
1.08746 -0.0010654 0
0.855725 0.000567065 0
0.36135 0.000760208 0
-0.364033 -0.00036204 0
0.3633 -3.22523e-06 0
0.85778 -0.00037117 0
1.08823 0.000411807 0
1.16842 0.00215958 0
1.18939 0.00400924 0
1.19231 0.00532717 0
1.19086 0.00586354 0
1.18882 0.00562998 0
1.18712 0.00476183 0
1.18604 0.00343971 0
1.18563 0.00185617 0
1.18592 0.000203748 0
1.18685 -0.00132882 0
1.18832 -0.00255909 0
1.19004 -0.00331699 0
1.19105 -0.00346083 0
1.18768 -0.00291593 0
1.16633 -0.00175843 0
1.08593 -0.000350026 0
0.855582 0.00062241 0
0.362128 0.00059698 0
-0.364443 -0.000269877 0
0.363718 -2.40832e-06 0
0.857066 -0.000277038 0
1.08659 0.000179808 0
1.16667 0.00133661 0
1.18816 0.00264436 0
1.19183 0.00364681 0
1.19113 0.00412892 0
1.1897 0.00406292 0
1.18844 0.00352358 0
1.18761 0.00263308 0
1.18727 0.00153332 0
1.18744 0.000372382 0
1.18808 -0.000703079 0
1.18909 -0.0015541 0
1.19022 -0.00205792 0
1.19057 -0.00212277 0
1.1866 -0.00171616 0
1.16501 -0.000919037 0
1.08503 -3.42819e-06 0
0.855649 0.000567542 0
0.362747 0.000456606 0
-0.364763 -0.000187863 0
0.364045 -1.67787e-06 0
0.856667 -0.00019317 0
1.08551 8.81569e-05 0
1.16545 0.00086266 0
1.18723 0.00178002 0
1.19141 0.00252286 0
1.19123 0.00292272 0
1.19026 0.00293962 0
1.18934 0.00261205 0
1.18871 0.0020205 0
1.18843 0.00126653 0
1.18852 0.000460334 0
1.18895 -0.000287739 0
1.18962 -0.000874766 0
1.19032 -0.00121387 0
1.19022 -0.00124628 0
1.18588 -0.000960897 0
1.16417 -0.000428002 0
1.08452 0.000156475 0
0.855798 0.00048312 0
0.363229 0.000345634 0
-0.365002 -0.000125352 0
0.36429 -1.12018e-06 0
0.856435 -0.000129191 0
1.08481 5.28517e-05 0
1.16461 0.00057943 0
1.18656 0.00122353 0
1.19106 0.00176744 0
1.19126 0.00208572 0
1.19061 0.00213927 0
1.18995 0.00194622 0
1.18948 0.00155867 0
1.18925 0.00104776 0
1.18928 0.000493455 0
1.18955 -2.33106e-05 0
1.18999 -0.000427916 0
1.19039 -0.000659671 0
1.18998 -0.000681029 0
1.1854 -0.000490594 0
1.16365 -0.000143812 0
1.08424 0.000221578 0
0.85597 0.000399078 0
0.363603 0.000260624 0
-0.36518 -8.00013e-05 0
0.364471 -7.15346e-07 0
0.856298 -8.27565e-05 0
1.08434 4.0045e-05 0
1.16402 0.000403914 0
1.18607 0.000858904 0
1.19079 0.00125592 0
1.19124 0.00150407 0
1.19084 0.00157013 0
1.19036 0.00146147 0
1.19001 0.00121142 0
1.18982 0.00086902 0
1.18982 0.000491176 0
1.18998 0.000136071 0
1.19025 -0.000143078 0
1.19045 -0.000304236 0
1.18984 -0.000323302 0
1.1851 -0.000202604 0
1.16333 1.64159e-05 0
1.08411 0.000238228 0
0.856142 0.000324739 0
0.363893 0.000196085 0
-0.365312 -4.74674e-05 0
0.364606 -4.2488e-07 0
0.856217 -4.94409e-05 0
1.08402 3.64116e-05 0
1.16362 0.000291814 0
1.18572 0.00061603 0
1.19059 0.000906498 0
1.19122 0.00109823 0
1.19098 0.00116486 0
1.19064 0.0011084 0
1.19038 0.000950013 0
1.19023 0.000723066 0
1.1902 0.000467454 0
1.19029 0.000224348 0
1.19044 3.1218e-05 0
1.19051 -8.29904e-05 0
1.18976 -0.000102671 0
1.18493 -3.10776e-05 0
1.16315 0.000101823 0
1.08407 0.000230284 0
0.856304 0.0002618 0
0.364119 0.000147058 0
-0.365412 -2.40909e-05 0
0.364707 -2.16175e-07 0
0.85617 -2.55028e-05 0
1.08381 3.6572e-05 0
1.16334 0.000218517 0
1.18548 0.000451849 0
1.19044 0.00066554 0
1.19119 0.000813346 0
1.19107 0.000875098 0
1.19083 0.000850325 0
1.19063 0.00075235 0
1.19051 0.000603682 0
1.19047 0.00043193 0
1.19051 0.000265864 0
1.19059 0.0001316 0
1.19056 4.89932e-05 0
1.18973 2.8254e-05 0
1.18484 6.63547e-05 0
1.16307 0.000142085 0
1.08407 0.000210433 0
0.856451 0.000209477 0
0.364298 0.000109671 0
-0.365487 -7.25498e-06 0
0.364784 -6.58683e-08 0
0.856145 -8.26117e-06 0
1.08367 3.81816e-05 0
1.16315 0.000169653 0
1.18531 0.000339328 0
1.19033 0.000497685 0
1.19116 0.000611813 0
1.19113 0.000666577 0
1.19096 0.000660486 0
1.19081 0.000601853 0
1.19071 0.000505727 0
1.19067 0.000391021 0
1.19067 0.000277632 0
1.1907 0.000183613 0
1.19062 0.000122545 0
1.18972 0.000101177 0
1.1848 0.000117073 0
1.16304 0.000155448 0
1.08411 0.000185634 0
0.856582 0.00016637 0
0.364438 8.10505e-05 0
-0.365545 4.83892e-06 0
0.364842 4.21066e-08 0
0.856134 4.1275e-06 0
1.08358 4.01163e-05 0
1.16302 0.000136455 0
1.18519 0.000261138 0
1.19026 0.000379449 0
1.19114 0.000467901 0
1.19117 0.000515231 0
1.19105 0.000519644 0
1.19094 0.000486256 0
1.19085 0.000425041 0
1.19081 0.000348837 0
1.1908 0.000271283 0
1.1908 0.000204776 0
1.19067 0.00015858 0
1.18974 0.0001372 0
1.1848 0.000138822 0
1.16304 0.000153266 0
1.08416 0.000159756 0
0.856698 0.000131069 0
0.36455 5.90849e-05 0
-0.365588 1.34359e-05 0
0.364887 1.18871e-07 0
0.856132 1.29395e-05 0
1.08352 4.1808e-05 0
1.16294 0.000113394 0
1.18511 0.000205977 0
1.1902 0.000295121 0
1.19113 0.000363993 0
1.1912 0.000404233 0
1.19112 0.000414066 0
1.19103 0.000396572 0
1.19096 0.000358298 0
1.19092 0.000307883 0
1.1909 0.000254604 0
1.19087 0.000206919 0
1.19072 0.000171139 0
1.18977 0.000150293 0
1.18481 0.000143102 0
1.16307 0.000142631 0
1.08422 0.000134922 0
0.8568 0.000102315 0
0.36464 4.22145e-05 0
-0.365622 1.94201e-05 0
0.364921 1.72319e-07 0
0.856135 1.90806e-05 0
1.08348 4.29824e-05 0
1.16288 9.69232e-05 0
1.18505 0.00016638 0
1.19017 0.000234116 0
1.19112 0.00028801 0
1.19122 0.000321839 0
1.19116 0.000333989 0
1.1911 0.000326247 0
1.19104 0.000302857 0
1.191 0.000269583 0
1.19097 0.000232688 0
1.19094 0.000197912 0
1.19077 0.000169542 0
1.18981 0.000149635 0
1.18485 0.000137325 0
1.16311 0.000127946 0
1.08428 0.000112228 0
0.856889 7.90216e-05 0
0.364712 2.92732e-05 0
-0.365648 2.34366e-05 0
0.364947 2.08209e-07 0
0.856142 2.3211e-05 0
1.08346 4.35366e-05 0
1.16284 8.47427e-05 0
1.18502 0.000137375 0
1.19015 0.000189269 0
1.19112 0.000231645 0
1.19124 0.000259855 0
1.1912 0.000272483 0
1.19115 0.000270501 0
1.1911 0.000256622 0
1.19106 0.000234651 0
1.19104 0.000208784 0
1.191 0.000182897 0
1.19082 0.000159898 0
1.18985 0.000141193 0
1.18489 0.000126222 0
1.16315 0.000111894 0
1.08434 9.21513e-05 0
0.856967 6.02639e-05 0
0.36477 1.93782e-05 0
-0.365668 2.59671e-05 0
0.364968 2.3084e-07 0
0.856151 2.58233e-05 0
1.08345 4.34695e-05 0
1.16282 7.53648e-05 0
1.185 0.000115633 0
1.19013 0.000155702 0
1.19112 0.000189173 0
1.19125 0.00021255 0
1.19123 0.000224619 0
1.19119 0.000225846 0
1.19115 0.000217926 0
1.19112 0.000203345 0
1.19109 0.000184891 0
1.19105 0.000165167 0
1.19087 0.000146142 0
1.1899 0.000128787 0
1.18493 0.000112762 0
1.1632 9.60557e-05 0
1.0844 7.48045e-05 0
0.857035 4.52557e-05 0
0.364817 1.18536e-05 0
-0.365684 2.73764e-05 0
0.364984 2.43467e-07 0
0.856161 2.72903e-05 0
1.08344 4.28373e-05 0
1.16281 6.78295e-05 0
1.18498 9.89188e-05 0
1.19013 0.000130085 0
1.19113 0.000156631 0
1.19127 0.000175907 0
1.19126 0.000186882 0
1.19123 0.000189717 0
1.19119 0.000185439 0
1.19116 0.000175647 0
1.19114 0.000162178 0
1.19109 0.000146771 0
1.19091 0.000130756 0
1.18994 0.000114812 0
1.18497 9.8753e-05 0
1.16325 8.13046e-05 0
1.08446 6.00888e-05 0
0.857094 3.33332e-05 0
0.364856 6.17753e-06 0
-0.365697 2.79433e-05 0
0.364997 2.48577e-07 0
0.856172 2.78968e-05 0
1.08344 4.17237e-05 0
1.1628 6.15225e-05 0
1.18498 8.57272e-05 0
1.19013 0.000110132 0
1.19113 0.000131264 0
1.19129 0.000147093 0
1.19128 0.000156753 0
1.19126 0.00016022 0
1.19123 0.000158091 0
1.1912 0.000151376 0
1.19118 0.00014127 0
1.19113 0.000128929 0
1.19096 0.000115253 0
1.18998 0.000100721 0
1.18501 8.52527e-05 0
1.16329 6.80708e-05 0
1.08451 4.77928e-05 0
0.857147 2.39385e-05 0
0.364888 1.94502e-06 0
-0.365707 2.78818e-05 0
0.365007 2.48079e-07 0
0.856184 2.78613e-05 0
1.08345 4.02214e-05 0
1.1628 5.60535e-05 0
1.18498 7.50418e-05 0
1.19013 9.42722e-05 0
1.19114 0.00011115 0
1.1913 0.000124106 0
1.1913 0.000132411 0
1.19128 0.000135943 0
1.19126 0.00013502 0
1.19124 0.000130265 0
1.19121 0.000122445 0
1.19117 0.000112324 0
1.19099 0.000100511 0
1.19002 8.7352e-05 0
1.18506 7.28333e-05 0
1.16334 5.65096e-05 0
1.08456 3.76547e-05 0
0.857193 1.66066e-05 0
0.364914 -1.15944e-06 0
-0.365715 2.73555e-05 0
0.365015 2.43433e-07 0
0.856195 2.7351e-05 0
1.08346 3.84205e-05 0
1.16281 5.11774e-05 0
1.18499 6.61742e-05 0
1.19014 8.14144e-05 0
1.19116 9.49374e-05 0
1.19132 0.000105514 0
1.19132 0.000112532 0
1.19131 0.00011582 0
1.19129 0.000115524 0
1.19127 0.00011201 0
1.19125 0.000105766 0
1.19121 9.72907e-05 0
1.19103 8.69998e-05 0
1.19006 7.51467e-05 0
1.18509 6.17611e-05 0
1.16338 4.66135e-05 0
1.0846 2.93999e-05 0
0.857233 1.09516e-05 0
0.364937 -3.38197e-06 0
-0.365722 2.64898e-05 0
0.365022 2.35757e-07 0
0.856206 2.64942e-05 0
1.08347 3.6402e-05 0
1.16282 4.67407e-05 0
1.18499 5.86559e-05 0
1.19015 7.07995e-05 0
1.19117 8.16687e-05 0
1.19133 9.02878e-05 0
1.19134 9.61434e-05 0
1.19133 9.90432e-05 0
1.19131 9.90276e-05 0
1.1913 9.63017e-05 0
1.19128 9.11663e-05 0
1.19124 8.39467e-05 0
1.19106 7.49272e-05 0
1.19009 6.42984e-05 0
1.18513 5.21152e-05 0
1.16342 3.82845e-05 0
1.08464 2.27637e-05 0
0.857269 6.6563e-06 0
0.364956 -4.91468e-06 0
-0.365728 2.53795e-05 0
0.365028 2.25898e-07 0
0.856218 2.5388e-05 0
1.08348 3.42352e-05 0
1.16283 4.26479e-05 0
1.185 5.21649e-05 0
1.19016 6.1893e-05 0
1.19118 7.06601e-05 0
1.19135 7.76801e-05 0
1.19136 8.252e-05 0
1.19135 8.4987e-05 0
1.19134 8.50596e-05 0
1.19132 8.28404e-05 0
1.19131 7.85098e-05 0
1.19127 7.2278e-05 0
1.1911 6.43419e-05 0
1.19012 5.48479e-05 0
1.18517 4.38641e-05 0
1.16345 3.13794e-05 0
1.08468 1.7503e-05 0
0.857301 3.461e-06 0
0.364972 -5.90742e-06 0
-0.365733 2.40966e-05 0
0.365033 2.14497e-07 0
0.856229 2.41064e-05 0
1.08349 3.19773e-05 0
1.16284 3.88389e-05 0
1.18501 4.64779e-05 0
1.19017 5.43154e-05 0
1.19119 6.14175e-05 0
1.19136 6.71406e-05 0
1.19138 7.11179e-05 0
1.19137 7.3166e-05 0
1.19136 7.32298e-05 0
1.19135 7.13487e-05 0
1.19133 6.76259e-05 0
1.1913 6.21966e-05 0
1.19112 5.51987e-05 0
1.19015 4.67479e-05 0
1.1852 3.69164e-05 0
1.16349 2.57388e-05 0
1.08471 1.34017e-05 0
0.85733 1.15475e-06 0
0.364985 -6.47698e-06 0
-0.365737 2.26949e-05 0
0.365037 2.02034e-07 0
0.856239 2.27048e-05 0
1.0835 2.96736e-05 0
1.16285 3.52752e-05 0
1.18502 4.14373e-05 0
1.19018 4.77929e-05 0
1.1912 5.35794e-05 0
1.19138 5.82601e-05 0
1.19139 6.15226e-05 0
1.19139 6.3198e-05 0
1.19138 6.32148e-05 0
1.19137 6.1575e-05 0
1.19135 5.83333e-05 0
1.19132 5.3576e-05 0
1.19115 4.74017e-05 0
1.19018 3.99034e-05 0
1.18523 3.11525e-05 0
1.16352 2.12041e-05 0
1.08474 1.02729e-05 0
0.857355 -4.32948e-07 0
0.364997 -6.71421e-06 0
-0.36574 2.12144e-05 0
0.365041 1.88868e-07 0
0.856249 2.12244e-05 0
1.08351 2.73589e-05 0
1.16286 3.19309e-05 0
1.18503 3.69295e-05 0
1.19019 4.21254e-05 0
1.19122 4.68777e-05 0
1.19139 5.07301e-05 0
1.19141 5.34149e-05 0
1.1914 5.47791e-05 0
1.1914 5.47459e-05 0
1.19139 5.32961e-05 0
1.19138 5.04543e-05 0
1.19134 4.62755e-05 0
1.19117 4.08316e-05 0
1.19021 3.41988e-05 0
1.18525 2.64439e-05 0
1.16354 1.76266e-05 0
1.08477 7.95713e-06 0
0.857378 -1.43905e-06 0
0.365008 -6.68964e-06 0
-0.365744 1.96848e-05 0
0.365044 1.75262e-07 0
0.856259 1.96958e-05 0
1.08352 2.50594e-05 0
1.16287 2.87875e-05 0
1.18504 3.28712e-05 0
1.1902 3.71639e-05 0
1.19123 4.11103e-05 0
1.1914 4.43148e-05 0
1.19142 4.65456e-05 0
1.19142 4.76659e-05 0
1.19141 4.75996e-05 0
1.19141 4.63163e-05 0
1.1914 4.38228e-05 0
1.19137 4.01535e-05 0
1.1912 3.53626e-05 0
1.19023 2.95133e-05 0
1.18528 2.26654e-05 0
1.16357 1.48729e-05 0
1.08479 6.3211e-06 0
0.857399 -1.97295e-06 0
0.365017 -6.45783e-06 0
-0.365747 1.81276e-05 0
0.365047 1.6141e-07 0
0.856269 1.81411e-05 0
1.08354 2.27938e-05 0
1.16288 2.58302e-05 0
1.18505 2.9199e-05 0
1.19021 3.27955e-05 0
1.19124 3.61229e-05 0
1.19142 3.88316e-05 0
1.19144 4.07185e-05 0
1.19143 4.1662e-05 0
1.19143 4.15897e-05 0
1.19142 4.04664e-05 0
1.19141 3.82881e-05 0
1.19138 3.50766e-05 0
1.19122 3.08732e-05 0
1.19025 2.5731e-05 0
1.1853 1.97016e-05 0
1.16359 1.2827e-05 0
1.08482 5.25453e-06 0
0.857418 -2.12139e-06 0
0.365026 -6.06083e-06 0
-0.365749 1.65587e-05 0
0.36505 1.47451e-07 0
0.856277 1.65759e-05 0
1.08355 2.05746e-05 0
1.16289 2.30466e-05 0
1.18506 2.58636e-05 0
1.19023 2.89326e-05 0
1.19125 3.17957e-05 0
1.19143 3.41372e-05 0
1.19145 3.57774e-05 0
1.19145 3.6608e-05 0
1.19144 3.65616e-05 0
1.19144 3.56015e-05 0
1.19143 3.37178e-05 0
1.1914 3.09237e-05 0
1.19124 2.72516e-05 0
1.19027 2.27461e-05 0
1.18532 1.74501e-05 0
1.16361 1.13899e-05 0
1.08484 4.6676e-06 0
0.857435 -1.95255e-06 0
0.365033 -5.53082e-06 0
-0.365752 1.49889e-05 0
0.365052 1.33484e-07 0
0.856285 1.50108e-05 0
1.08356 1.84096e-05 0
1.1629 2.04249e-05 0
1.18507 2.28251e-05 0
1.19023 2.55063e-05 0
1.19126 2.80342e-05 0
1.19144 3.01182e-05 0
1.19146 3.15972e-05 0
1.19146 3.23742e-05 0
1.19146 3.23869e-05 0
1.19145 3.15991e-05 0
1.19145 2.99971e-05 0
1.19142 2.75885e-05 0
1.19125 2.43989e-05 0
1.19029 2.04658e-05 0
1.18534 1.58231e-05 0
1.16363 1.04796e-05 0
1.08486 4.48834e-06 0
0.857451 -1.51938e-06 0
0.36504 -4.89214e-06 0
-0.365754 1.34255e-05 0
0.365054 1.19573e-07 0
0.856293 1.34521e-05 0
1.08356 1.63024e-05 0
1.16291 1.79538e-05 0
1.18508 2.00506e-05 0
1.19024 2.24608e-05 0
1.19127 2.47625e-05 0
1.19145 2.66835e-05 0
1.19147 2.80768e-05 0
1.19147 2.88549e-05 0
1.19147 2.89601e-05 0
1.19146 2.83567e-05 0
1.19146 2.7029e-05 0
1.19143 2.49803e-05 0
1.19127 2.22307e-05 0
1.1903 1.88114e-05 0
1.18535 1.47475e-05 0
1.16365 1.00296e-05 0
1.08487 4.66029e-06 0
0.857465 -8.62174e-07 0
0.365046 -4.16287e-06 0
-0.365756 1.18726e-05 0
0.365056 1.05756e-07 0
0.8563 1.19028e-05 0
1.08357 1.42532e-05 0
1.16292 1.56216e-05 0
1.18509 1.75115e-05 0
1.19025 1.97502e-05 0
1.19128 2.19192e-05 0
1.19146 2.37594e-05 0
1.19148 2.51346e-05 0
1.19148 2.59642e-05 0
1.19148 2.61944e-05 0
1.19148 2.579e-05 0
1.19147 2.47333e-05 0
1.19144 2.3024e-05 0
1.19128 2.06773e-05 0
1.19032 1.77186e-05 0
1.18537 1.41648e-05 0
1.16366 9.98814e-06 0
1.08489 5.14066e-06 0
0.857478 -1.06345e-08 0
0.365052 -3.356e-06 0
-0.365757 1.03318e-05 0
0.365057 9.20458e-08 0
0.856306 1.03634e-05 0
1.08358 1.22598e-05 0
1.16292 1.34163e-05 0
1.1851 1.51828e-05 0
1.19026 1.73358e-05 0
1.19128 1.94538e-05 0
1.19146 2.1286e-05 0
1.19149 2.27041e-05 0
1.19149 2.36328e-05 0
1.19149 2.40203e-05 0
1.19149 2.38312e-05 0
1.19148 2.30456e-05 0
1.19145 2.16595e-05 0
1.19129 1.96835e-05 0
1.19033 1.71376e-05 0
1.18538 1.40306e-05 0
1.16368 1.03169e-05 0
1.0849 5.89882e-06 0
0.85749 1.01467e-06 0
0.365057 -2.48024e-06 0
-0.365758 8.80206e-06 0
0.365059 7.84347e-08 0
0.856312 8.83226e-06 0
1.08359 1.03176e-05 0
1.16293 1.13256e-05 0
1.1851 1.3042e-05 0
1.19026 1.51847e-05 0
1.19129 1.7324e-05 0
1.19147 1.92141e-05 0
1.19149 2.0732e-05 0
1.1915 2.18053e-05 0
1.19149 2.23827e-05 0
1.19149 2.24274e-05 0
1.19149 2.19165e-05 0
1.19146 2.08418e-05 0
1.1913 1.92091e-05 0
1.19034 1.70329e-05 0
1.18539 1.43142e-05 0
1.16369 1.09905e-05 0
1.08491 6.91529e-06 0
0.8575 2.20128e-06 0
0.365062 -1.54059e-06 0
-0.365759 7.28097e-06 0
0.36506 6.49002e-08 0