# vtk DataFile Version 3.0
vtk output
ASCII
DATASET UNSTRUCTURED_GRID
POINTS 1913 double
0.045977 0 0
0.045977 0.0952381 0
0.045977 0.142857 0
0.045977 0.190476 0
0.045977 0.238095 0
0.045977 0.285714 0
0.045977 0.333333 0
0.045977 0.380952 0
0.045977 0.428571 0
0.045977 0.47619 0
0.045977 0.52381 0
0.045977 0.571429 0
0.045977 0.619048 0
0.045977 0.666667 0
0.045977 0.714286 0
0.045977 0.761905 0
0.045977 0.809524 0
0.045977 0.857143 0
0.045977 0.904762 0
0.045977 0.952381 0
0.045977 1 0
0.091954 0 0
0.091954 0.047619 0
0.091954 0.0952381 0
0.091954 0.142857 0
0.091954 0.190476 0
0.091954 0.238095 0
0.091954 0.285714 0
0.091954 0.333333 0
0.091954 0.380952 0
0.091954 0.428571 0
0.091954 0.47619 0
0.091954 0.52381 0
0.091954 0.571429 0
0.091954 0.619048 0
0.091954 0.666667 0
0.091954 0.714286 0
0.091954 0.761905 0
0.091954 0.809524 0
0.091954 0.857143 0
0.091954 0.904762 0
0.091954 0.952381 0
0.091954 1 0
0.137931 0 0
0.137931 0.047619 0
0.137931 0.0952381 0
0.137931 0.142857 0
0.137931 0.190476 0
0.137931 0.238095 0
0.137931 0.285714 0
0.137931 0.333333 0
0.137931 0.380952 0
0.137931 0.428571 0
0.137931 0.47619 0
0.137931 0.52381 0
0.137931 0.571429 0
0.137931 0.619048 0
0.137931 0.666667 0
0.137931 0.714286 0
0.137931 0.761905 0
0.137931 0.809524 0
0.137931 0.857143 0
0.137931 0.904762 0
0.137931 0.952381 0
0.137931 1 0
0.183908 0 0
0.183908 0.047619 0
0.183908 0.0952381 0
0.183908 0.142857 0
0.183908 0.190476 0
0.183908 0.238095 0
0.183908 0.285714 0
0.183908 0.333333 0
0.183908 0.380952 0
0.183908 0.428571 0
0.183908 0.47619 0
0.183908 0.52381 0
0.183908 0.571429 0
0.183908 0.619048 0
0.183908 0.666667 0
0.183908 0.714286 0
0.183908 0.761905 0
0.183908 0.809524 0
0.183908 0.857143 0
0.183908 0.904762 0
0.183908 0.952381 0
0.183908 1 0
0.229885 0 0
0.229885 0.047619 0
0.229885 0.0952381 0
0.229885 0.142857 0
0.229885 0.190476 0
0.229885 0.238095 0
0.229885 0.285714 0
0.229885 0.333333 0
0.229885 0.380952 0
0.229885 0.428571 0
0.229885 0.47619 0
0.229885 0.52381 0
0.229885 0.571429 0
0.229885 0.619048 0
0.229885 0.666667 0
0.229885 0.714286 0
0.229885 0.761905 0
0.229885 0.809524 0
0.229885 0.857143 0
0.229885 0.904762 0
0.229885 0.952381 0
0.229885 1 0
0.275862 0 0
0.275862 0.047619 0
0.275862 0.0952381 0
0.275862 0.142857 0
0.275862 0.190476 0
0.275862 0.238095 0
0.275862 0.285714 0
0.275862 0.333333 0
0.275862 0.380952 0
0.275862 0.428571 0
0.275862 0.47619 0
0.275862 0.52381 0
0.275862 0.571429 0
0.275862 0.619048 0
0.275862 0.666667 0
0.275862 0.714286 0
0.275862 0.761905 0
0.275862 0.809524 0
0.275862 0.857143 0
0.275862 0.904762 0
0.275862 0.952381 0
0.275862 1 0
0.321839 0 0
0.321839 0.047619 0
0.321839 0.0952381 0
0.321839 0.142857 0
0.321839 0.190476 0
0.321839 0.238095 0
0.321839 0.285714 0
0.321839 0.333333 0
0.321839 0.380952 0
0.321839 0.428571 0
0.321839 0.47619 0
0.321839 0.52381 0
0.321839 0.571429 0
0.321839 0.619048 0
0.321839 0.666667 0
0.321839 0.714286 0
0.321839 0.761905 0
0.321839 0.809524 0
0.321839 0.857143 0
0.321839 0.904762 0
0.321839 0.952381 0
0.321839 1 0
0.367816 0 0
0.367816 0.047619 0
0.367816 0.0952381 0
0.367816 0.142857 0
0.367816 0.190476 0
0.367816 0.238095 0
0.367816 0.285714 0
0.367816 0.333333 0
0.367816 0.380952 0
0.367816 0.428571 0
0.367816 0.47619 0
0.367816 0.52381 0
0.367816 0.571429 0
0.367816 0.619048 0
0.367816 0.666667 0
0.367816 0.714286 0
0.367816 0.761905 0
0.367816 0.809524 0
0.367816 0.857143 0
0.367816 0.904762 0
0.367816 0.952381 0
0.367816 1 0
0.413793 0 0
0.413793 0.047619 0
0.413793 0.0952381 0
0.413793 0.142857 0
0.413793 0.190476 0
0.413793 0.238095 0
0.413793 0.285714 0
0.413793 0.333333 0
0.413793 0.380952 0
0.413793 0.428571 0
0.413793 0.47619 0
0.413793 0.52381 0
0.413793 0.571429 0
0.413793 0.619048 0
0.413793 0.666667 0
0.413793 0.714286 0
0.413793 0.761905 0
0.413793 0.809524 0
0.413793 0.857143 0
0.413793 0.904762 0
0.413793 0.952381 0
0.413793 1 0
0.45977 0 0
0.45977 0.047619 0
0.45977 0.0952381 0
0.45977 0.142857 0
0.45977 0.190476 0
0.45977 0.238095 0
0.45977 0.285714 0
0.45977 0.333333 0
0.45977 0.380952 0
0.45977 0.428571 0
0.45977 0.47619 0
0.45977 0.52381 0
0.45977 0.571429 0
0.45977 0.619048 0
0.45977 0.666667 0
0.45977 0.714286 0
0.45977 0.761905 0
0.45977 0.809524 0
0.45977 0.857143 0
0.45977 0.904762 0
0.45977 0.952381 0
0.45977 1 0
0.505747 0 0
0.505747 0.047619 0
0.505747 0.0952381 0
0.505747 0.142857 0
0.505747 0.190476 0
0.505747 0.238095 0
0.505747 0.285714 0
0.505747 0.333333 0
0.505747 0.380952 0
0.505747 0.428571 0
0.505747 0.47619 0
0.505747 0.52381 0
0.505747 0.571429 0
0.505747 0.619048 0
0.505747 0.666667 0
0.505747 0.714286 0
0.505747 0.761905 0
0.505747 0.809524 0
0.505747 0.857143 0
0.505747 0.904762 0
0.505747 0.952381 0
0.505747 1 0
0.551724 0 0
0.551724 0.047619 0
0.551724 0.0952381 0
0.551724 0.142857 0
0.551724 0.190476 0
0.551724 0.238095 0
0.551724 0.285714 0
0.551724 0.333333 0
0.551724 0.380952 0
0.551724 0.428571 0
0.551724 0.47619 0
0.551724 0.52381 0
0.551724 0.571429 0
0.551724 0.619048 0
0.551724 0.666667 0
0.551724 0.714286 0
0.551724 0.761905 0
0.551724 0.809524 0
0.551724 0.857143 0
0.551724 0.904762 0
0.551724 0.952381 0
0.551724 1 0
0.597701 0 0
0.597701 0.047619 0
0.597701 0.0952381 0
0.597701 0.142857 0
0.597701 0.190476 0
0.597701 0.238095 0
0.597701 0.285714 0
0.597701 0.333333 0
0.597701 0.380952 0
0.597701 0.428571 0
0.597701 0.47619 0
0.597701 0.52381 0
0.597701 0.571429 0
0.597701 0.619048 0
0.597701 0.666667 0
0.597701 0.714286 0
0.597701 0.761905 0
0.597701 0.809524 0
0.597701 0.857143 0
0.597701 0.904762 0
0.597701 0.952381 0
0.597701 1 0
0.643678 0 0
0.643678 0.047619 0
0.643678 0.0952381 0
0.643678 0.142857 0
0.643678 0.190476 0
0.643678 0.238095 0
0.643678 0.285714 0
0.643678 0.333333 0
0.643678 0.380952 0
0.643678 0.428571 0
0.643678 0.47619 0
0.643678 0.52381 0
0.643678 0.571429 0
0.643678 0.619048 0
0.643678 0.666667 0
0.643678 0.714286 0
0.643678 0.761905 0
0.643678 0.809524 0
0.643678 0.857143 0
0.643678 0.904762 0
0.643678 0.952381 0
0.643678 1 0
0.689655 0 0
0.689655 0.047619 0
0.689655 0.0952381 0
0.689655 0.142857 0
0.689655 0.190476 0
0.689655 0.238095 0
0.689655 0.285714 0
0.689655 0.333333 0
0.689655 0.380952 0
0.689655 0.428571 0
0.689655 0.47619 0
0.689655 0.52381 0
0.689655 0.571429 0
0.689655 0.619048 0
0.689655 0.666667 0
0.689655 0.714286 0
0.689655 0.761905 0
0.689655 0.809524 0
0.689655 0.857143 0
0.689655 0.904762 0
0.689655 0.952381 0
0.689655 1 0
0.735632 0 0
0.735632 0.047619 0
0.735632 0.0952381 0
0.735632 0.142857 0
0.735632 0.190476 0
0.735632 0.238095 0
0.735632 0.285714 0
0.735632 0.333333 0
0.735632 0.380952 0
0.735632 0.428571 0
0.735632 0.47619 0
0.735632 0.52381 0
0.735632 0.571429 0
0.735632 0.619048 0
0.735632 0.666667 0
0.735632 0.714286 0
0.735632 0.761905 0
0.735632 0.809524 0
0.735632 0.857143 0
0.735632 0.904762 0
0.735632 0.952381 0
0.735632 1 0
0.781609 0 0
0.781609 0.047619 0
0.781609 0.0952381 0
0.781609 0.142857 0
0.781609 0.190476 0
0.781609 0.238095 0
0.781609 0.285714 0
0.781609 0.333333 0
0.781609 0.380952 0
0.781609 0.428571 0
0.781609 0.47619 0
0.781609 0.52381 0
0.781609 0.571429 0
0.781609 0.619048 0
0.781609 0.666667 0
0.781609 0.714286 0
0.781609 0.761905 0
0.781609 0.809524 0
0.781609 0.857143 0
0.781609 0.904762 0
0.781609 0.952381 0
0.781609 1 0
0.827586 0 0
0.827586 0.047619 0
0.827586 0.0952381 0
0.827586 0.142857 0
0.827586 0.190476 0
0.827586 0.238095 0
0.827586 0.285714 0
0.827586 0.333333 0
0.827586 0.380952 0
0.827586 0.428571 0
0.827586 0.47619 0
0.827586 0.52381 0
0.827586 0.571429 0
0.827586 0.619048 0
0.827586 0.666667 0
0.827586 0.714286 0
0.827586 0.761905 0
0.827586 0.809524 0
0.827586 0.857143 0
0.827586 0.904762 0
0.827586 0.952381 0
0.827586 1 0
0.873563 0 0
0.873563 0.047619 0
0.873563 0.0952381 0
0.873563 0.142857 0
0.873563 0.190476 0
0.873563 0.238095 0
0.873563 0.285714 0
0.873563 0.333333 0
0.873563 0.380952 0
0.873563 0.428571 0
0.873563 0.47619 0
0.873563 0.52381 0
0.873563 0.571429 0
0.873563 0.619048 0
0.873563 0.666667 0
0.873563 0.714286 0
0.873563 0.761905 0
0.873563 0.809524 0
0.873563 0.857143 0
0.873563 0.904762 0
0.873563 0.952381 0
0.873563 1 0
0.91954 0 0
0.91954 0.047619 0
0.91954 0.0952381 0
0.91954 0.142857 0
0.91954 0.190476 0
0.91954 0.238095 0
0.91954 0.285714 0
0.91954 0.333333 0
0.91954 0.380952 0
0.91954 0.428571 0
0.91954 0.47619 0
0.91954 0.52381 0
0.91954 0.571429 0
0.91954 0.619048 0
0.91954 0.666667 0
0.91954 0.714286 0
0.91954 0.761905 0
0.91954 0.809524 0
0.91954 0.857143 0
0.91954 0.904762 0
0.91954 0.952381 0
0.91954 1 0
0.965517 0 0
0.965517 0.047619 0
0.965517 0.0952381 0
0.965517 0.142857 0
0.965517 0.190476 0
0.965517 0.238095 0
0.965517 0.285714 0
0.965517 0.333333 0
0.965517 0.380952 0
0.965517 0.428571 0
0.965517 0.47619 0
0.965517 0.52381 0
0.965517 0.571429 0
0.965517 0.619048 0
0.965517 0.666667 0
0.965517 0.714286 0
0.965517 0.761905 0
0.965517 0.809524 0
0.965517 0.857143 0
0.965517 0.904762 0
0.965517 0.952381 0
0.965517 1 0
1.01149 0 0
1.01149 0.047619 0
1.01149 0.0952381 0
1.01149 0.142857 0
1.01149 0.190476 0
1.01149 0.238095 0
1.01149 0.285714 0
1.01149 0.333333 0
1.01149 0.380952 0
1.01149 0.428571 0
1.01149 0.47619 0
1.01149 0.52381 0
1.01149 0.571429 0
1.01149 0.619048 0
1.01149 0.666667 0
1.01149 0.714286 0
1.01149 0.761905 0
1.01149 0.809524 0
1.01149 0.857143 0
1.01149 0.904762 0
1.01149 0.952381 0
1.01149 1 0
1.05747 0 0
1.05747 0.047619 0
1.05747 0.0952381 0
1.05747 0.142857 0
1.05747 0.190476 0
1.05747 0.238095 0
1.05747 0.285714 0
1.05747 0.333333 0
1.05747 0.380952 0
1.05747 0.428571 0
1.05747 0.47619 0
1.05747 0.52381 0
1.05747 0.571429 0
1.05747 0.619048 0
1.05747 0.666667 0
1.05747 0.714286 0
1.05747 0.761905 0
1.05747 0.809524 0
1.05747 0.857143 0
1.05747 0.904762 0
1.05747 0.952381 0
1.05747 1 0
1.10345 0 0
1.10345 0.047619 0
1.10345 0.0952381 0
1.10345 0.142857 0
1.10345 0.190476 0
1.10345 0.238095 0
1.10345 0.285714 0
1.10345 0.333333 0
1.10345 0.380952 0
1.10345 0.428571 0
1.10345 0.47619 0
1.10345 0.52381 0
1.10345 0.571429 0
[...]
POINT_DATA 1913
VECTORS velocity[m/s] double
-0 0.197447 0
0 0.197561 0
0 0.188764 0
0 0.156059 0
0 0.125145 0
0 0.0986562 0
0 0.0760109 0
0 0.056279 0
0 0.0386035 0
0 0.0222555 0
0 0.00660767 0
0 -0.00891423 0
0 -0.0248876 0
0 -0.0419575 0
0 -0.060918 0
0 -0.0828254 0
0 -0.109165 0
0 -0.142084 0
0 -0.184452 0
0 -0.23653 0
0 -0.264112 0
-0.870367 0.172781 0
0.870381 0.00152393 0
1.06972 0.172914 0
1.093 0.185454 0
1.09151 0.155844 0
1.08747 0.124072 0
1.08397 0.0971548 0
1.08134 0.0746186 0
1.07949 0.0551909 0
1.07831 0.0378487 0
1.07769 0.0218175 0
1.07758 0.00647289 0
1.07797 -0.00873854 0
1.07895 -0.0243645 0
1.08064 -0.0410126 0
1.0833 -0.0594335 0
1.08734 -0.0806441 0
1.09339 -0.106118 0
1.10216 -0.137924 0
1.11113 -0.177524 0
1.08706 -0.216204 0
0.805098 -0.197965 0
-0.705084 0.129494 0
0.704973 0.00116099 0
1.05766 0.129685 0
1.12164 0.159465 0
1.12223 0.141795 0
1.11351 0.11512 0
1.10578 0.0907838 0
1.10014 0.0700246 0
1.09628 0.0519864 0
1.09383 0.0357717 0
1.09255 0.0206952 0
1.09231 0.00621895 0
1.09311 -0.0081224 0
1.09507 -0.0227786 0
1.09847 -0.0382339 0
1.10382 -0.0550631 0
1.11198 -0.0740019 0
1.12415 -0.0959854 0
1.14044 -0.121756 0
1.14853 -0.149118 0
1.0695 -0.162509 0
0.614009 -0.116558 0
-0.581253 0.0859091 0
0.580958 0.000770528 0
1.02896 0.0861486 0
1.13875 0.121227 0
1.14804 0.116175 0
1.13705 0.0984835 0
1.12587 0.0796713 0
1.11761 0.062459 0
1.11199 0.0468929 0
1.10844 0.0325388 0
1.10657 0.0189763 0
1.1062 0.00584947 0
1.1073 -0.00715652 0
1.11004 -0.0203388 0
1.11477 -0.0339939 0
1.12216 -0.0484266 0
1.13325 -0.0639297 0
1.14908 -0.0806321 0
1.16691 -0.097754 0
1.16151 -0.11084 0
1.02519 -0.105483 0
0.501524 -0.0589708 0
-0.499128 0.0505215 0
0.498603 0.000453415 0
0.995146 0.05075 0
1.14368 0.0824748 0
1.16517 0.0864107 0
1.15527 0.0778749 0
1.14254 0.0656675 0
1.13269 0.0529324 0
1.1259 0.040501 0
1.12158 0.0284899 0
1.1193 0.0168234 0
1.11881 0.00537752 0
1.12008 -0.00597957 0
1.12327 -0.0173692 0
1.12875 -0.0288825 0
1.13718 -0.0405424 0
1.14943 -0.0522146 0
1.16567 -0.0633634 0
1.1796 -0.0723472 0
1.15639 -0.0746986 0
0.980333 -0.0613434 0
0.44464 -0.0267427 0
-0.450865 0.0263023 0
0.45012 0.000236348 0
0.964568 0.0264672 0
1.13993 0.0508782 0
1.17346 0.0592664 0
1.1671 0.0576079 0
1.15488 0.0512267 0
1.14474 0.0428238 0
1.13754 0.0335977 0
1.1329 0.0240648 0
1.1304 0.0144452 0
1.12982 0.00482976 0
1.13113 -0.00474019 0
1.13444 -0.0142237 0
1.14006 -0.0235342 0
1.1485 -0.0324751 0
1.16025 -0.0406284 0
1.17439 -0.0471325 0
1.18193 -0.0502466 0
1.14355 -0.0467654 0
0.94698 -0.0327964 0
0.418874 -0.010927 0
-0.425775 0.0121688 0
0.424872 0.000109538 0
0.94105 0.0122586 0
1.13189 0.0289933 0
1.17511 0.0382446 0
1.17331 0.0405209 0
1.16305 0.0382569 0
1.1537 0.0333297 0
1.1468 0.0269121 0
1.14223 0.0196871 0
1.13973 0.0120502 0
1.13911 0.00424265 0
1.14033 -0.00356335 0
1.14348 -0.0112048 0
1.14874 -0.0184724 0
1.15642 -0.0250442 0
1.16658 -0.0303892 0
1.17745 -0.0336269 0
1.17862 -0.0333714 0
1.13012 -0.0278605 0
0.925917 -0.0164747 0
0.408376 -0.00389242 0
-0.414207 0.00504304 0
0.413218 4.54896e-05 0
0.924943 0.00507677 0
1.123 0.0156696 0
1.17297 0.0237673 0
1.17555 0.0275794 0
1.16785 0.0276927 0
1.15994 0.0251739 0
1.15382 0.0209479 0
1.14965 0.0156757 0
1.14732 0.00980614 0
1.1467 0.00365423 0
1.14776 -0.00253207 0
1.15054 -0.00851789 0
1.15514 -0.0140318 0
1.16163 -0.0187119 0
1.16975 -0.0220441 0
1.17725 -0.0233023 0
1.17335 -0.0215756 0
1.11917 -0.0161718 0
0.91382 -0.00794477 0
0.404669 -0.0010498 0
-0.409455 0.00189635 0
0.408434 1.71429e-05 0
0.914765 0.00189947 0
1.11523 0.00831326 0
1.16933 0.0145763 0
1.17549 0.0184665 0
1.17033 0.0196557 0
1.16407 0.0186084 0
1.15896 0.0159478 0
1.15537 0.0122126 0
1.1533 0.00782039 0
1.15272 0.00309642 0
1.15359 -0.00168566 0
1.15591 -0.00626519 0
1.1597 -0.0103581 0
1.1649 -0.013622 0
1.17102 -0.0156263 0
1.17563 -0.0158496 0
1.16818 -0.0137832 0
1.11128 -0.00934258 0
0.907212 -0.00375966 0
0.403705 -3.07278e-05 0
-0.407713 0.00066588 0
0.406689 6.02991e-06 0
0.908621 0.000656928 0
1.10923 0.00450095 0
1.16563 0.00901701 0
1.17439 0.012332 0
1.17139 0.013813 0
1.16668 0.0135625 0
1.16261 0.0119468 0
1.15966 0.00935781 0
1.15791 0.00614073 0
1.15738 0.00259092 0
1.15806 -0.0010287 0
1.15991 -0.00446545 0
1.1629 -0.00745541 0
1.16688 -0.0097058 0
1.17128 -0.0108881 0
1.17369 -0.0106624 0
1.16394 -0.00879118 0
1.10594 -0.00545645 0
0.90366 -0.00177933 0
0.403724 0.000265274 0
-0.407145 0.000236612 0
0.40613 2.14205e-06 0
0.904956 0.0002253 0
1.10492 0.00257038 0
1.16247 0.00571232 0
1.173 0.00829281 0
1.17168 0.00968148 0
1.16829 0.00980586 0
1.16516 0.00885324 0
1.16281 0.00708624 0
1.16138 0.00476911 0
1.16092 0.00214871 0
1.16142 -0.000543613 0
1.16284 -0.00308331 0
1.16512 -0.00524345 0
1.16807 -0.00678961 0
1.17111 -0.00748573 0
1.17193 -0.0071258 0
1.16076 -0.00562744 0
1.10243 -0.00324517 0
0.901733 -0.000848639 0
0.404027 0.000304733 0
-0.406986 0.000101893 0
0.405982 9.18274e-07 0
0.902736 9.19784e-05 0
1.10193 0.00157215 0
1.16002 0.00373013 0
1.17171 0.00564515 0
1.1716 0.00680156 0
1.16925 0.00706644 0
1.16691 0.00651931 0
1.16509 0.00532608 0
1.16396 0.00367869 0
1.16356 0.00177213 0
1.16391 -0.000202151 0
1.16497 -0.00205641 0
1.16666 -0.00360574 0
1.16878 -0.00467058 0
1.17081 -0.00508758 0
1.17052 -0.00473842 0
1.15851 -0.00361693 0
1.10016 -0.00196222 0
0.900664 -0.000401375 0
0.404366 0.000268034 0
-0.406954 6.27686e-05 0
0.405959 5.62013e-07 0
0.901351 5.50991e-05 0
1.09989 0.00102516 0
1.15822 0.00250904 0
1.17063 0.00389727 0
1.17139 0.00480402 0
1.16983 0.0050935 0
1.1681 0.00478807 0
1.16672 0.00398827 0
1.16584 0.0028288 0
1.16551 0.00145767 0
1.16575 2.63815e-05 0
1.16651 -0.00131491 0
1.16773 -0.00242132 0
1.16923 -0.00315929 0
1.17051 -0.00341812 0
1.16949 -0.00313249 0
1.15696 -0.00232694 0
1.0987 -0.00119603 0
0.900061 -0.000177122 0
0.404668 0.000217756 0
-0.406957 5.1038e-05 0
0.405969 4.55293e-07 0
0.900456 4.53894e-05 0
1.0985 0.000702197 0
1.15692 0.00173106 0
1.1698 0.00272834 0
1.17115 0.00341725 0
1.17016 0.00368179 0
1.16892 0.00351798 0
1.16788 0.00298503 0
1.16721 0.00217548 0
1.16694 0.00119857 0
1.16709 0.00017031 0
1.16762 -0.000793162 0
1.16848 -0.00158153 0
1.16952 -0.00209734 0
1.17028 -0.00226623 0
1.16875 -0.00205305 0
1.15591 -0.00149019 0
1.09776 -0.000725352 0
0.899722 -5.97363e-05 0
0.404921 0.00017226 0
-0.406969 4.63921e-05 0
0.405987 4.1334e-07 0
0.899863 4.23007e-05 0
1.09755 0.000498252 0
1.156 0.0012194 0
1.16918 0.00193518 0
1.17094 0.00245049 0
1.17036 0.00267409 0
1.16947 0.00259223 0
1.16871 0.00223916 0
1.16819 0.00167769 0
1.16797 0.000986873 0
1.16806 0.000253392 0
1.16842 -0.000435168 0
1.16902 -0.000996559 0
1.16972 -0.00136057 0
1.17011 -0.00147723 0
1.16825 -0.0013279 0
1.15521 -0.000942882 0
1.09716 -0.000430272 0
0.899539 2.96297e-06 0
0.405128 0.000135029 0
-0.406984 4.36815e-05 0
0.406005 3.89049e-07 0
0.899463 4.07267e-05 0
1.09689 0.000363167 0
1.15535 0.000874182 0
1.16872 0.00138966 0
1.17076 0.00177271 0
1.17048 0.00195452 0
1.16985 0.0019195 0
1.16929 0.00168726 0
1.1689 0.00130017 0
1.16872 0.00081466 0
1.16876 0.000294325 0
1.16901 -0.000196034 0
1.16941 -0.000596052 0
1.16988 -0.00085554 0
1.17001 -0.000940736 0
1.16791 -0.000841746 0
1.15475 -0.000583503 0
1.09678 -0.000243558 0
0.899451 3.56034e-05 0
0.405298 0.00010533 0
-0.406999 4.17976e-05 0
0.406024 3.72211e-07 0
0.899189 3.96601e-05 0
1.09644 0.00027103 0
1.15489 0.000636808 0
1.16839 0.00101007 0
1.17062 0.00129456 0
1.17055 0.00143954 0
1.17011 0.00143081 0
1.1697 0.00127952 0
1.1694 0.0010142 0
1.16926 0.000674738 0
1.16927 0.000307154 0
1.16943 -4.12958e-05 0
1.1697 -0.000326823 0
1.17 -0.000513723 0
1.16995 -0.000579 0
1.1677 -0.000517319 0
1.15446 -0.000347885 0
1.09655 -0.000125723 0
0.899422 5.08085e-05 0
0.405438 8.16717e-05 0
-0.407014 4.04642e-05 0
0.406041 3.60297e-07 0
0.899003 3.8915e-05 0
1.09612 0.000207067 0
1.15456 0.000471296 0
1.16815 0.000743301 0
1.17052 0.000955104 0
1.1706 0.00106966 0
1.1703 0.00107519 0
1.16999 0.00097798 0
1.16977 0.000797223 0
1.16965 0.00056093 0
1.16964 0.000302056 0
1.16974 5.46842e-05 0
1.16992 -0.000149695 0
1.1701 -0.00028576 0
1.16993 -0.000337705 0
1.16758 -0.000302557 0
1.15428 -0.000194552 0
1.09641 -5.24743e-05 0
0.899429 5.56685e-05 0
0.405554 6.27369e-05 0
-0.407028 3.95044e-05 0
0.406057 3.51722e-07 0
0.898876 3.83809e-05 0
1.0959 0.000162113 0
1.15434 0.00035462 0
1.16798 0.00055417 0
1.17045 0.000712527 0
1.17063 0.000802755 0
1.17043 0.000815508 0
1.1702 0.000754265 0
1.17003 0.000631946 0
1.16994 0.000468115 0
1.16992 0.000286184 0
1.16998 0.000110532 0
1.17009 -3.63453e-05 0
1.17018 -0.00013652 0
1.16993 -0.000179041 0
1.16751 -0.000162159 0
1.15418 -9.61735e-05 0
1.09635 -8.29938e-06 0
0.899458 5.44677e-05 0
0.40565 4.75227e-05 0
-0.407042 3.87468e-05 0
0.406071 3.44962e-07 0
0.898791 3.79329e-05 0
1.09575 0.000130159 0
1.15418 0.000271562 0
1.16786 0.000418964 0
1.17039 0.000537991 0
1.17065 0.000609063 0
1.17052 0.000624934 0
1.17035 0.000587459 0
1.17022 0.000505325 0
1.17015 0.000392139 0
1.17012 0.000264432 0
1.17015 0.000139526 0
1.17022 3.34138e-05 0
1.17026 -4.12276e-05 0
1.16995 -7.67546e-05 0
1.16748 -7.2065e-05 0
1.15413 -3.44869e-05 0
1.09632 1.69623e-05 0
0.899499 4.99062e-05 0
0.40573 3.52845e-05 0
-0.407054 3.80451e-05 0
0.406084 3.38711e-07 0
0.898735 3.74572e-05 0
1.09565 0.000107142 0
1.15407 0.000211849 0
1.16778 0.000321487 0
1.17036 0.000411481 0
1.17067 0.000467569 0
1.17059 0.000484196 0
1.17047 0.000462274 0
1.17037 0.000407627 0
1.1703 0.000329683 0
1.17028 0.000240054 0
1.17029 0.000150985 0
1.17032 7.38037e-05 0
1.17032 1.74661e-05 0
1.16998 -1.26586e-05 0
1.16748 -1.58234e-05 0
1.15412 2.82586e-06 0
1.09632 3.00585e-05 0
0.899546 4.37068e-05 0
0.405797 2.54597e-05 0
-0.407065 3.72939e-05 0
0.406096 3.32028e-07 0
0.8987 3.68711e-05 0
1.09558 9.02848e-05 0
1.15399 0.000168446 0
1.16772 0.000250564 0
1.17034 0.000319028 0
1.17068 0.000363414 0
1.17064 0.000379481 0
1.17055 0.000367591 0
1.17047 0.000331632 0
1.17042 0.00027811 0
1.17039 0.000215144 0
1.17039 0.000151357 0
1.17041 9.47435e-05 0
1.17039 5.16318e-05 0
1.17001 2.58128e-05 0
1.16749 1.78285e-05 0
1.15412 2.41068e-05 0
1.09634 3.54925e-05 0
0.899596 3.69565e-05 0
0.405854 1.76092e-05 0
-0.407075 3.64296e-05 0
0.406106 3.24344e-07 0
0.898679 3.61274e-05 0
1.09553 7.76756e-05 0
1.15395 0.000136493 0
1.16769 0.000198427 0
1.17032 0.00025084 0
1.1707 0.000286076 0
1.17068 0.000300895 0
1.17062 0.000295346 0
1.17056 0.000272003 0
1.17051 0.000235335 0
1.17049 0.000190996 0
1.17048 0.000145035 0
1.17048 0.000103085 0
1.17044 6.96135e-05 0
1.17005 4.73104e-05 0
1.16751 3.6592e-05 0
1.15414 3.50066e-05 0
1.09637 3.62625e-05 0
0.899645 3.03186e-05 0
0.405901 1.13809e-05 0
-0.407083 3.54226e-05 0
0.406115 3.15392e-07 0
0.898668 3.52084e-05 0
1.0955 6.80021e-05 0
1.15391 0.000112618 0
1.16767 0.000159651 0
1.17032 0.000200025 0
1.17071 0.000228087 0
1.17072 0.000241351 0
1.17067 0.00023969 0
1.17062 0.000224791 0
1.17058 0.000199705 0
1.17056 0.000168356 0
1.17055 0.000134974 0
1.17054 0.000103516 0
1.17049 7.7139e-05 0
1.17009 5.77613e-05 0
1.16754 4.57156e-05 0
1.15417 3.93401e-05 0
1.0964 3.43481e-05 0
0.899692 2.41738e-05 0
0.405941 6.48653e-06 0
-0.407091 3.42675e-05 0
0.406123 3.05123e-07 0
0.898664 3.41173e-05 0
1.09549 6.03641e-05 0
1.1539 9.447e-05 0
1.16766 0.000130429 0
1.17032 0.000161718 0
1.17073 0.000184135 0
1.17075 0.000195761 0
1.17071 0.000196377 0
1.17067 0.000187071 0
1.17064 0.000169912 0
1.17062 0.000147611 0
1.17061 0.000123116 0
1.1706 9.92045e-05 0
1.17054 7.81079e-05 0
1.17013 6.12003e-05 0
1.16758 4.87558e-05 0
1.1542 3.96647e-05 0
1.09644 3.10377e-05 0
0.899737 1.87166e-05 0
0.405976 2.68782e-06 0
-0.407098 3.29742e-05 0
0.40613 2.93622e-07 0
0.898665 3.28704e-05 0
1.09548 5.41463e-05 0
1.15389 8.04093e-05 0
1.16765 0.00010808 0
1.17032 0.000132471 0
1.17074 0.000150431 0
1.17077 0.000160465 0
1.17075 0.000162317 0
1.17072 0.000156668 0
1.17069 0.000144911 0
1.17067 0.000128909 0
1.17066 0.000110711 0
1.17064 9.22653e-05 0
1.17058 7.51483e-05 0
1.17017 6.03509e-05 0
1.16761 4.81032e-05 0
1.15424 3.76773e-05 0
1.09648 2.71521e-05 0
0.89978 1.40221e-05 0
0.406005 -2.13271e-07 0
-0.407105 3.1561e-05 0
0.406137 2.81052e-07 0
0.89867 3.14907e-05 0
1.09548 4.89287e-05 0
1.15389 6.92872e-05 0
1.16765 9.07125e-05 0
1.17033 0.000109834 0
1.17076 0.000124262 0
1.1708 0.000132825 0
1.17078 0.000135252 0
1.17075 0.000131956 0
1.17073 0.000123866 0
1.17071 0.000112253 0
1.1707 9.85376e-05 0
1.17068 8.40836e-05 0
1.17062 7.00087e-05 0
1.1702 5.7031e-05 0
1.16765 4.53459e-05 0
1.15427 3.44871e-05 0
1.09652 2.31976e-05 0
0.899819 1.00916e-05 0
0.40603 -2.3811e-06 0
-0.407111 3.00493e-05 0
0.406143 2.67604e-07 0
0.898678 3.00031e-05 0
1.09549 4.44255e-05 0
1.15389 6.02983e-05 0
1.16766 7.69848e-05 0
1.17034 9.20568e-05 0
1.17077 0.000103681 0
1.17082 0.000110924 0
1.1708 0.000113523 0
1.17078 0.000111713 0
1.17077 0.000106102 0
1.17075 9.75545e-05 0
1.17074 8.70513e-05 0
1.17072 7.5546e-05 0
1.17066 6.38326e-05 0
1.17024 5.2436e-05 0
1.16768 4.15232e-05 0
1.15431 3.08039e-05 0
1.09655 1.94715e-05 0
0.899855 6.88394e-06 0
0.406052 -3.95168e-06 0
-0.407116 2.84612e-05 0
0.406148 2.53475e-07 0
0.898686 2.84323e-05 0
1.0955 4.04423e-05 0
1.1539 5.28758e-05 0
1.16767 6.59431e-05 0
1.17035 7.7888e-05 0
1.17079 8.72802e-05 0
1.17084 9.33688e-05 0
1.17083 9.59067e-05 0
1.17081 9.50111e-05 0
1.1708 9.10744e-05 0
1.17078 8.46783e-05 0
1.17077 7.64978e-05 0
1.17076 6.71999e-05 0
1.17069 5.73503e-05 0
1.17027 4.7336e-05 0
1.16772 3.73e-05 0
1.15434 2.70687e-05 0
1.09659 1.61347e-05 0
0.899888 4.33523e-06 0
0.406071 -5.03709e-06 0
-0.407121 2.68172e-05 0
0.406154 2.38845e-07 0
0.898696 2.68006e-05 0
1.0955 3.68467e-05 0
1.15391 4.66194e-05 0
1.16768 5.69061e-05 0
1.17037 6.64256e-05 0
1.17081 7.4041e-05 0
1.17086 7.91391e-05 0
1.17085 8.14922e-05 0
1.17084 8.11432e-05 0
1.17082 7.83381e-05 0
1.17081 7.34646e-05 0
1.1708 6.69851e-05 0
1.17079 5.93661e-05 0
1.17072 5.10127e-05 0
1.1703 4.22129e-05 0
1.16775 3.30893e-05 0
1.15437 2.3543e-05 0
1.09662 1.32605e-05 0
0.899919 2.37265e-06 0
0.406088 -5.72921e-06 0
-0.407126 2.5135e-05 0
0.406158 2.23874e-07 0
0.898707 2.51274e-05 0
1.09552 3.35478e-05 0
1.15392 4.12446e-05 0
1.16769 4.93843e-05 0
1.17038 5.7017e-05 0
1.17082 6.32191e-05 0
1.17088 6.74816e-05 0
1.17087 6.95977e-05 0
1.17086 6.95643e-05 0
1.17085 6.75291e-05 0
1.17084 6.3747e-05 0
1.17083 5.85336e-05 0
1.17082 5.22152e-05 0
1.17075 4.50835e-05 0
1.17033 3.73553e-05 0
1.16778 2.91355e-05 0
1.1544 2.03708e-05 0
1.09665 1.08679e-05 0
0.899947 9.22417e-07 0
0.406102 -6.10295e-06 0
-0.407131 2.34299e-05 0
0.406163 2.08698e-07 0
0.898718 2.3429e-05 0
1.09553 3.04831e-05 0
1.15393 3.65481e-05 0
1.1677 4.30238e-05 0
1.17039 4.9187e-05 0
1.17084 5.42679e-05 0
1.17089 5.78372e-05 0
1.17089 5.97085e-05 0
1.17088 5.98511e-05 0
1.17087 5.83478e-05 0
1.17086 5.53633e-05 0
1.17086 5.11114e-05 0
1.17084 4.58211e-05 0
1.17078 3.97036e-05 0
1.17036 3.29242e-05 0
1.16781 2.55723e-05 0
1.15443 1.76203e-05 0
1.09668 8.94412e-06 0
0.899973 -8.54238e-08 0
0.406115 -6.21912e-06 0
-0.407135 2.1714e-05 0
0.406167 1.93426e-07 0
0.898729 2.17183e-05 0
1.09554 2.76089e-05 0
1.15394 3.23832e-05 0
1.16771 3.75668e-05 0
1.17041 4.25864e-05 0
1.17085 4.67827e-05 0
1.17091 4.97872e-05 0
1.17091 5.14323e-05 0
1.1709 5.16721e-05 0
1.17089 5.0547e-05 0
1.17089 4.81606e-05 0
1.17088 4.46569e-05 0
1.17087 4.01967e-05 0
1.1708 3.49345e-05 0
1.17039 2.89978e-05 0
1.16783 2.2462e-05 0
1.15446 1.53123e-05 0
1.09671 7.45853e-06 0
0.899996 -7.14418e-07 0
0.406127 -6.12677e-06 0
-0.407139 1.99971e-05 0
0.406171 1.78143e-07 0
0.89874 2.00056e-05 0
1.09555 2.48939e-05 0
1.15395 2.86429e-05 0
1.16772 3.2824e-05 0
1.17042 3.69571e-05 0
1.17086 4.04616e-05 0
1.17092 4.30154e-05 0
1.17092 4.44678e-05 0
1.17092 4.47656e-05 0
1.17091 4.39219e-05 0
1.17091 4.19993e-05 0
1.1709 3.90939e-05 0
1.17089 3.53188e-05 0
1.17082 3.07883e-05 0
1.17041 2.56019e-05 0
1.16785 1.98228e-05 0
1.15448 1.34396e-05 0
1.09673 6.37259e-06 0
0.900018 -1.02058e-06 0
0.406138 -5.86531e-06 0
-0.407143 1.82866e-05 0
0.406175 1.62916e-07 0
0.89875 1.82986e-05 0
1.09556 2.23153e-05 0
1.15396 2.52482e-05 0
1.16774 2.86544e-05 0
1.17043 3.2106e-05 0
1.17088 3.50771e-05 0
1.17094 3.72809e-05 0
1.17094 3.85817e-05 0
1.17093 3.89236e-05 0
1.17093 3.83027e-05 0
1.17092 3.67543e-05 0
1.17092 3.43416e-05 0
1.17091 3.11443e-05 0
1.17084 2.7248e-05 0
1.17043 2.27312e-05 0
1.16788 1.76462e-05 0
1.1545 1.19793e-05 0
1.09675 5.64561e-06 0
0.900038 -1.05211e-06 0
0.406147 -5.46615e-06 0
-0.407146 1.65876e-05 0
0.406178 1.47792e-07 0
0.89876 1.66028e-05 0
1.09557 1.98557e-05 0
1.15397 2.21395e-05 0
1.16775 2.49524e-05 0
1.17044 2.78875e-05 0
1.17089 3.04562e-05 0
1.17095 3.23985e-05 0
1.17095 3.35916e-05 0
1.17095 3.39797e-05 0
1.17094 3.35486e-05 0
1.17094 3.23154e-05 0
1.17093 3.03206e-05 0
1.17092 2.76208e-05 0
1.17086 2.42805e-05 0
1.17045 2.03625e-05 0
1.1679 1.59094e-05 0
1.15452 1.09015e-05 0
1.09677 5.23837e-06 0
0.900056 -8.49671e-07 0
0.406156 -4.95419e-06 0
-0.407149 1.49039e-05 0
0.406181 1.32804e-07 0
0.89877 1.4922e-05 0
1.09558 1.75016e-05 0
1.15398 1.92717e-05 0
1.16776 2.16377e-05 0
1.17045 2.41906e-05 0
1.1709 2.64662e-05 0
1.17096 2.82247e-05 0
1.17097 2.93541e-05 0
1.17096 2.98003e-05 0
1.17096 2.95428e-05 0
1.17095 2.85867e-05 0
1.17095 2.6957e-05 0
1.17094 2.46938e-05 0
1.17088 2.1846e-05 0
1.17046 1.84645e-05 0
1.16791 1.45831e-05 0
1.15454 1.01742e-05 0
1.09679 5.11523e-06 0
0.900073 -4.46842e-07 0
0.406164 -4.34893e-06 0
-0.407152 1.32377e-05 0
0.406184 1.17971e-07 0
0.898779 1.32585e-05 0
1.09559 1.5242e-05 0
1.15399 1.66097e-05 0
1.16777 1.86481e-05 0
1.17046 2.09297e-05 0
1.17091 2.30044e-05 0
1.17097 2.46474e-05 0
1.17098 2.57557e-05 0
1.17097 2.62775e-05 0
1.17097 2.61887e-05 0
1.17097 2.54863e-05 0
1.17096 2.41844e-05 0
1.17095 2.23109e-05 0
1.17089 1.99036e-05 0
1.17048 1.70034e-05 0
1.16793 1.36368e-05 0
1.15456 9.76685e-06 0
1.09681 5.24535e-06 0
0.900088 1.29275e-07 0
0.406171 -3.66543e-06 0
-0.407155 1.15903e-05 0
0.406187 1.03305e-07 0
0.898787 1.16136e-05 0
1.0956 1.30675e-05 0
1.154 1.41255e-05 0
1.16777 1.59354e-05 0
1.17047 1.80381e-05 0
1.17092 1.99902e-05 0
1.17098 2.15783e-05 0
1.17099 2.27064e-05 0
1.17098 2.33248e-05 0
1.17098 2.34073e-05 0
1.17098 2.29453e-05 0
1.17098 2.19449e-05 0
1.17097 2.0425e-05 0
1.17091 1.84147e-05 0
1.17049 1.59472e-05 0
1.16794 1.30419e-05 0
1.15457 9.65266e-06 0
1.09683 5.60326e-06 0
0.900102 8.57493e-07 0
0.406178 -2.91502e-06 0
-0.407158 9.9619e-06 0
0.406189 8.88085e-08 0
0.898794 9.98785e-06 0
1.09561 1.09703e-05 0
1.15401 1.17968e-05 0
1.16778 1.34611e-05 0
1.17048 1.54631e-05 0
1.17093 1.73605e-05 0
1.17099 1.89477e-05 0
1.17099 2.01343e-05 0
1.17099 2.08723e-05 0
1.17099 2.11342e-05 0
1.17099 2.09067e-05 0
1.17099 2.01899e-05 0
1.17098 1.89958e-05 0
1.17092 1.73462e-05 0
1.1705 1.52679e-05 0
1.16795 1.27743e-05 0
1.15459 9.80962e-06 0
1.09684 6.16916e-06 0
0.900114 1.72204e-06 0
0.406184 -2.10589e-06 0
-0.40716 8.35225e-06 0
0.406191 7.44788e-08 0
0.898801 8.381e-06 0
1.09562 8.94314e-06 0
1.15401 9.60505e-06 0
1.16779 1.11942e-05 0
1.17048 1.31627e-05 0
1.17093 1.50647e-05 0
1.171 1.67002e-05 0
1.171 1.79824e-05 0
1.171 1.88647e-05 0
1.171 1.93177e-05 0
1.171 1.93247e-05 0
1.17099 1.88803e-05 0
1.17099 1.79904e-05 0
1.17093 1.66711e-05 0
1.17051 1.49434e-05 0
1.16797 1.28152e-05 0
1.1546 1.02216e-05 0
1.09685 6.92908e-06 0
0.900126 2.71219e-06 0
0.406189 -1.24346e-06 0
-0.407161 6.76053e-06 0
0.406193 6.03088e-08 0
0.898807 6.79254e-06 0
1.09562 6.97947e-06 0
1.15402 7.53433e-06 0
1.16779 9.10925e-06 0
1.17049 1.11027e-05 0
1.17094 1.30625e-05 0
1.171 1.47914e-05 0
1.17101 1.62055e-05 0
1.17101 1.72581e-05 0
1.17101 1.79178e-05 0
1.171 1.81639e-05 0
1.171 1.79861e-05 0
1.17099 1.73849e-05 0
1.17094 1.63704e-05 0
1.17052 1.49588e-05 0
1.16797 1.31529e-05 0
1.15461 1.08788e-05 0
1.09686 7.87507e-06 0
0.900136 3.82203e-06 0
0.406195 -3.30694e-07 0