# vtk DataFile Version 3.0
vtk output
ASCII
DATASET UNSTRUCTURED_GRID
POINTS 1913 double
0.045977 0 0
0.045977 0.0952381 0
0.045977 0.142857 0
0.045977 0.190476 0
0.045977 0.238095 0
0.045977 0.285714 0
0.045977 0.333333 0
0.045977 0.380952 0
0.045977 0.428571 0
0.045977 0.47619 0
0.045977 0.52381 0
0.045977 0.571429 0
0.045977 0.619048 0
0.045977 0.666667 0
0.045977 0.714286 0
0.045977 0.761905 0
0.045977 0.809524 0
0.045977 0.857143 0
0.045977 0.904762 0
0.045977 0.952381 0
0.045977 1 0
0.091954 0 0
0.091954 0.047619 0
0.091954 0.0952381 0
0.091954 0.142857 0
0.091954 0.190476 0
0.091954 0.238095 0
0.091954 0.285714 0
0.091954 0.333333 0
0.091954 0.380952 0
0.091954 0.428571 0
0.091954 0.47619 0
0.091954 0.52381 0
0.091954 0.571429 0
0.091954 0.619048 0
0.091954 0.666667 0
0.091954 0.714286 0
0.091954 0.761905 0
0.091954 0.809524 0
0.091954 0.857143 0
0.091954 0.904762 0
0.091954 0.952381 0
0.091954 1 0
0.137931 0 0
0.137931 0.047619 0
0.137931 0.0952381 0
0.137931 0.142857 0
0.137931 0.190476 0
0.137931 0.238095 0
0.137931 0.285714 0
0.137931 0.333333 0
0.137931 0.380952 0
0.137931 0.428571 0
0.137931 0.47619 0
0.137931 0.52381 0
0.137931 0.571429 0
0.137931 0.619048 0
0.137931 0.666667 0
0.137931 0.714286 0
0.137931 0.761905 0
0.137931 0.809524 0
0.137931 0.857143 0
0.137931 0.904762 0
0.137931 0.952381 0
0.137931 1 0
0.183908 0 0
0.183908 0.047619 0
0.183908 0.0952381 0
0.183908 0.142857 0
0.183908 0.190476 0
0.183908 0.238095 0
0.183908 0.285714 0
0.183908 0.333333 0
0.183908 0.380952 0
0.183908 0.428571 0
0.183908 0.47619 0
0.183908 0.52381 0
0.183908 0.571429 0
0.183908 0.619048 0
0.183908 0.666667 0
0.183908 0.714286 0
0.183908 0.761905 0
0.183908 0.809524 0
0.183908 0.857143 0
0.183908 0.904762 0
0.183908 0.952381 0
0.183908 1 0
0.229885 0 0
0.229885 0.047619 0
0.229885 0.0952381 0
0.229885 0.142857 0
0.229885 0.190476 0
0.229885 0.238095 0
0.229885 0.285714 0
0.229885 0.333333 0
0.229885 0.380952 0
0.229885 0.428571 0
0.229885 0.47619 0
0.229885 0.52381 0
0.229885 0.571429 0
0.229885 0.619048 0
0.229885 0.666667 0
0.229885 0.714286 0
0.229885 0.761905 0
0.229885 0.809524 0
0.229885 0.857143 0
0.229885 0.904762 0
0.229885 0.952381 0
0.229885 1 0
0.275862 0 0
0.275862 0.047619 0
0.275862 0.0952381 0
0.275862 0.142857 0
0.275862 0.190476 0
0.275862 0.238095 0
0.275862 0.285714 0
0.275862 0.333333 0
0.275862 0.380952 0
0.275862 0.428571 0
0.275862 0.47619 0
0.275862 0.52381 0
0.275862 0.571429 0
0.275862 0.619048 0
0.275862 0.666667 0
0.275862 0.714286 0
0.275862 0.761905 0
0.275862 0.809524 0
0.275862 0.857143 0
0.275862 0.904762 0
0.275862 0.952381 0
0.275862 1 0
0.321839 0 0
0.321839 0.047619 0
0.321839 0.0952381 0
0.321839 0.142857 0
0.321839 0.190476 0
0.321839 0.238095 0
0.321839 0.285714 0
0.321839 0.333333 0
0.321839 0.380952 0
0.321839 0.428571 0
0.321839 0.47619 0
0.321839 0.52381 0
0.321839 0.571429 0
0.321839 0.619048 0
0.321839 0.666667 0
0.321839 0.714286 0
0.321839 0.761905 0
0.321839 0.809524 0
0.321839 0.857143 0
0.321839 0.904762 0
0.321839 0.952381 0
0.321839 1 0
0.367816 0 0
0.367816 0.047619 0
0.367816 0.0952381 0
0.367816 0.142857 0
0.367816 0.190476 0
0.367816 0.238095 0
0.367816 0.285714 0
0.367816 0.333333 0
0.367816 0.380952 0
0.367816 0.428571 0
0.367816 0.47619 0
0.367816 0.52381 0
0.367816 0.571429 0
0.367816 0.619048 0
0.367816 0.666667 0
0.367816 0.714286 0
0.367816 0.761905 0
0.367816 0.809524 0
0.367816 0.857143 0
0.367816 0.904762 0
0.367816 0.952381 0
0.367816 1 0
0.413793 0 0
0.413793 0.047619 0
0.413793 0.0952381 0
0.413793 0.142857 0
0.413793 0.190476 0
0.413793 0.238095 0
0.413793 0.285714 0
0.413793 0.333333 0
0.413793 0.380952 0
0.413793 0.428571 0
0.413793 0.47619 0
0.413793 0.52381 0
0.413793 0.571429 0
0.413793 0.619048 0
0.413793 0.666667 0
0.413793 0.714286 0
0.413793 0.761905 0
0.413793 0.809524 0
0.413793 0.857143 0
0.413793 0.904762 0
0.413793 0.952381 0
0.413793 1 0
0.45977 0 0
0.45977 0.047619 0
0.45977 0.0952381 0
0.45977 0.142857 0
0.45977 0.190476 0
0.45977 0.238095 0
0.45977 0.285714 0
0.45977 0.333333 0
0.45977 0.380952 0
0.45977 0.428571 0
0.45977 0.47619 0
0.45977 0.52381 0
0.45977 0.571429 0
0.45977 0.619048 0
0.45977 0.666667 0
0.45977 0.714286 0
0.45977 0.761905 0
0.45977 0.809524 0
0.45977 0.857143 0
0.45977 0.904762 0
0.45977 0.952381 0
0.45977 1 0
0.505747 0 0
0.505747 0.047619 0
0.505747 0.0952381 0
0.505747 0.142857 0
0.505747 0.190476 0
0.505747 0.238095 0
0.505747 0.285714 0
0.505747 0.333333 0
0.505747 0.380952 0
0.505747 0.428571 0
0.505747 0.47619 0
0.505747 0.52381 0
0.505747 0.571429 0
0.505747 0.619048 0
0.505747 0.666667 0
0.505747 0.714286 0
0.505747 0.761905 0
0.505747 0.809524 0
0.505747 0.857143 0
0.505747 0.904762 0
0.505747 0.952381 0
0.505747 1 0
0.551724 0 0
0.551724 0.047619 0
0.551724 0.0952381 0
0.551724 0.142857 0
0.551724 0.190476 0
0.551724 0.238095 0
0.551724 0.285714 0
0.551724 0.333333 0
0.551724 0.380952 0
0.551724 0.428571 0
0.551724 0.47619 0
0.551724 0.52381 0
0.551724 0.571429 0
0.551724 0.619048 0
0.551724 0.666667 0
0.551724 0.714286 0
0.551724 0.761905 0
0.551724 0.809524 0
0.551724 0.857143 0
0.551724 0.904762 0
0.551724 0.952381 0
0.551724 1 0
0.597701 0 0
0.597701 0.047619 0
0.597701 0.0952381 0
0.597701 0.142857 0
0.597701 0.190476 0
0.597701 0.238095 0
0.597701 0.285714 0
0.597701 0.333333 0
0.597701 0.380952 0
0.597701 0.428571 0
0.597701 0.47619 0
0.597701 0.52381 0
0.597701 0.571429 0
0.597701 0.619048 0
0.597701 0.666667 0
0.597701 0.714286 0
0.597701 0.761905 0
0.597701 0.809524 0
0.597701 0.857143 0
0.597701 0.904762 0
0.597701 0.952381 0
0.597701 1 0
0.643678 0 0
0.643678 0.047619 0
0.643678 0.0952381 0
0.643678 0.142857 0
0.643678 0.190476 0
0.643678 0.238095 0
0.643678 0.285714 0
0.643678 0.333333 0
0.643678 0.380952 0
0.643678 0.428571 0
0.643678 0.47619 0
0.643678 0.52381 0
0.643678 0.571429 0
0.643678 0.619048 0
0.643678 0.666667 0
0.643678 0.714286 0
0.643678 0.761905 0
0.643678 0.809524 0
0.643678 0.857143 0
0.643678 0.904762 0
0.643678 0.952381 0
0.643678 1 0
0.689655 0 0
0.689655 0.047619 0
0.689655 0.0952381 0
0.689655 0.142857 0
0.689655 0.190476 0
0.689655 0.238095 0
0.689655 0.285714 0
0.689655 0.333333 0
0.689655 0.380952 0
0.689655 0.428571 0
0.689655 0.47619 0
0.689655 0.52381 0
0.689655 0.571429 0
0.689655 0.619048 0
0.689655 0.666667 0
0.689655 0.714286 0
0.689655 0.761905 0
0.689655 0.809524 0
0.689655 0.857143 0
0.689655 0.904762 0
0.689655 0.952381 0
0.689655 1 0
0.735632 0 0
0.735632 0.047619 0
0.735632 0.0952381 0
0.735632 0.142857 0
0.735632 0.190476 0
0.735632 0.238095 0
0.735632 0.285714 0
0.735632 0.333333 0
0.735632 0.380952 0
0.735632 0.428571 0
0.735632 0.47619 0
0.735632 0.52381 0
0.735632 0.571429 0
0.735632 0.619048 0
0.735632 0.666667 0
0.735632 0.714286 0
0.735632 0.761905 0
0.735632 0.809524 0
0.735632 0.857143 0
0.735632 0.904762 0
0.735632 0.952381 0
0.735632 1 0
0.781609 0 0
0.781609 0.047619 0
0.781609 0.0952381 0
0.781609 0.142857 0
0.781609 0.190476 0
0.781609 0.238095 0
0.781609 0.285714 0
0.781609 0.333333 0
0.781609 0.380952 0
0.781609 0.428571 0
0.781609 0.47619 0
0.781609 0.52381 0
0.781609 0.571429 0
0.781609 0.619048 0
0.781609 0.666667 0
0.781609 0.714286 0
0.781609 0.761905 0
0.781609 0.809524 0
0.781609 0.857143 0
0.781609 0.904762 0
0.781609 0.952381 0
0.781609 1 0
0.827586 0 0
0.827586 0.047619 0
0.827586 0.0952381 0
0.827586 0.142857 0
0.827586 0.190476 0
0.827586 0.238095 0
0.827586 0.285714 0
0.827586 0.333333 0
0.827586 0.380952 0
0.827586 0.428571 0
0.827586 0.47619 0
0.827586 0.52381 0
0.827586 0.571429 0
0.827586 0.619048 0
0.827586 0.666667 0
0.827586 0.714286 0
0.827586 0.761905 0
0.827586 0.809524 0
0.827586 0.857143 0
0.827586 0.904762 0
0.827586 0.952381 0
0.827586 1 0
0.873563 0 0
0.873563 0.047619 0
0.873563 0.0952381 0
0.873563 0.142857 0
0.873563 0.190476 0
0.873563 0.238095 0
0.873563 0.285714 0
0.873563 0.333333 0
0.873563 0.380952 0
0.873563 0.428571 0
0.873563 0.47619 0
0.873563 0.52381 0
0.873563 0.571429 0
0.873563 0.619048 0
0.873563 0.666667 0
0.873563 0.714286 0
0.873563 0.761905 0
0.873563 0.809524 0
0.873563 0.857143 0
0.873563 0.904762 0
0.873563 0.952381 0
0.873563 1 0
0.91954 0 0
0.91954 0.047619 0
0.91954 0.0952381 0
0.91954 0.142857 0
0.91954 0.190476 0
0.91954 0.238095 0
0.91954 0.285714 0
0.91954 0.333333 0
0.91954 0.380952 0
0.91954 0.428571 0
0.91954 0.47619 0
0.91954 0.52381 0
0.91954 0.571429 0
0.91954 0.619048 0
0.91954 0.666667 0
0.91954 0.714286 0
0.91954 0.761905 0
0.91954 0.809524 0
0.91954 0.857143 0
0.91954 0.904762 0
0.91954 0.952381 0
0.91954 1 0
0.965517 0 0
0.965517 0.047619 0
0.965517 0.0952381 0
0.965517 0.142857 0
0.965517 0.190476 0
0.965517 0.238095 0
0.965517 0.285714 0
0.965517 0.333333 0
0.965517 0.380952 0
0.965517 0.428571 0
0.965517 0.47619 0
0.965517 0.52381 0
0.965517 0.571429 0
0.965517 0.619048 0
0.965517 0.666667 0
0.965517 0.714286 0
0.965517 0.761905 0
0.965517 0.809524 0
0.965517 0.857143 0
0.965517 0.904762 0
0.965517 0.952381 0
0.965517 1 0
1.01149 0 0
1.01149 0.047619 0
1.01149 0.0952381 0
1.01149 0.142857 0
1.01149 0.190476 0
1.01149 0.238095 0
1.01149 0.285714 0
1.01149 0.333333 0
1.01149 0.380952 0
1.01149 0.428571 0
1.01149 0.47619 0
1.01149 0.52381 0
1.01149 0.571429 0
1.01149 0.619048 0
1.01149 0.666667 0
1.01149 0.714286 0
1.01149 0.761905 0
1.01149 0.809524 0
1.01149 0.857143 0
1.01149 0.904762 0
1.01149 0.952381 0
1.01149 1 0
1.05747 0 0
1.05747 0.047619 0
1.05747 0.0952381 0
1.05747 0.142857 0
1.05747 0.190476 0
1.05747 0.238095 0
1.05747 0.285714 0
1.05747 0.333333 0
1.05747 0.380952 0
1.05747 0.428571 0
1.05747 0.47619 0
1.05747 0.52381 0
1.05747 0.571429 0
1.05747 0.619048 0
1.05747 0.666667 0
1.05747 0.714286 0
1.05747 0.761905 0
1.05747 0.809524 0
1.05747 0.857143 0
1.05747 0.904762 0
1.05747 0.952381 0
1.05747 1 0
1.10345 0 0
1.10345 0.047619 0
1.10345 0.0952381 0
1.10345 0.142857 0
1.10345 0.190476 0
1.10345 0.238095 0
1.10345 0.285714 0
1.10345 0.333333 0
1.10345 0.380952 0
1.10345 0.428571 0
1.10345 0.47619 0
1.10345 0.52381 0
1.10345 0.571429 0
[...]
POINT_DATA 1913
VECTORS velocity[m/s] double
-0 0.209475 0
0 0.209475 0
0 0.209427 0
0 0.181034 0
0 0.150719 0
0 0.121975 0
0 0.0949666 0
0 0.0693556 0
0 0.0447239 0
0 0.0206571 0
0 -0.00324471 0
0 -0.0273823 0
0 -0.0521839 0
0 -0.078141 0
0 -0.105856 0
0 -0.136105 0
0 -0.169936 0
0 -0.208771 0
0 -0.254115 0
0 -0.302613 0
0 -0.309804 0
-0.872392 0.185241 0
0.872392 0.00163383 0
1.07469 0.185241 0
1.10206 0.20886 0
1.10391 0.184489 0
1.1024 0.153106 0
1.10072 0.123329 0
1.09937 0.0957665 0
1.09843 0.0698456 0
1.09788 0.0450038 0
1.09772 0.0207681 0
1.09795 -0.00328589 0
1.09859 -0.0275709 0
1.0997 -0.0525239 0
1.1014 -0.0786474 0
1.10385 -0.106567 0
1.1073 -0.137123 0
1.11214 -0.1715 0
1.11842 -0.211088 0
1.12146 -0.254921 0
1.08158 -0.286199 0
0.775517 -0.235178 0
-0.695117 0.144681 0
0.695117 0.00129613 0
1.05189 0.144681 0
1.12559 0.189936 0
1.13422 0.178728 0
1.13115 0.1513 0
1.12733 0.122367 0
1.1244 0.0950618 0
1.12241 0.0693534 0
1.12128 0.0447294 0
1.12094 0.0207127 0
1.1214 -0.00311407 0
1.12268 -0.0271458 0
1.12493 -0.0517933 0
1.12836 -0.0775238 0
1.13335 -0.104913 0
1.1405 -0.134701 0
1.15036 -0.167688 0
1.16074 -0.203522 0
1.15166 -0.235204 0
1.03232 -0.234673 0
0.548449 -0.146292 0
-0.556677 0.105545 0
0.556677 0.000944868 0
1.00819 0.105545 0
1.13641 0.161782 0
1.1607 0.164754 0
1.15908 0.144687 0
1.1537 0.118743 0
1.14922 0.0927717 0
1.14619 0.0678885 0
1.14447 0.0439215 0
1.14395 0.0204965 0
1.1446 -0.0027493 0
1.14648 -0.0261604 0
1.14977 -0.0500885 0
1.1548 -0.0749219 0
1.16211 -0.101107 0
1.17234 -0.129091 0
1.18496 -0.158803 0
1.19133 -0.187398 0
1.15115 -0.20296 0
0.946989 -0.176735 0
0.407202 -0.0836666 0
-0.455684 0.0738507 0
0.455684 0.000660507 0
0.953895 0.0738507 0
1.13354 0.13227 0
1.18007 0.146327 0
1.18413 0.134397 0
1.17877 0.112776 0
1.17325 0.0890473 0
1.16933 0.0655506 0
1.16709 0.042637 0
1.1664 0.0201326 0
1.1672 -0.00222571 0
1.16958 -0.0247046 0
1.17375 -0.047573 0
1.18009 -0.071109 0
1.18913 -0.0955741 0
1.20103 -0.121003 0
1.21257 -0.146299 0
1.20636 -0.166493 0
1.12583 -0.16778 0
0.85713 -0.128006 0
0.326421 -0.0478272 0
-0.385018 0.0504913 0
0.385019 0.00045122 0
0.897491 0.0504913 0
1.11997 0.105594 0
1.19159 0.126778 0
1.20501 0.122107 0
1.20169 0.105205 0
1.19593 0.0842511 0
1.19145 0.0625412 0
1.18882 0.0409816 0
1.18798 0.0196514 0
1.18891 -0.00158336 0
1.19166 -0.022896 0
1.19647 -0.0444613 0
1.20371 -0.0664355 0
1.21368 -0.0888732 0
1.22546 -0.111373 0
1.23207 -0.131923 0
1.2076 -0.144291 0
1.08743 -0.135372 0
0.779717 -0.0917774 0
0.280244 -0.0286641 0
-0.336704 0.0343618 0
0.336705 0.000306856 0
0.844289 0.0343617 0
1.09952 0.0833639 0
1.1961 0.108234 0
1.22133 0.109281 0
1.22192 0.0968403 0
1.2169 0.0788233 0
1.21227 0.0591094 0
1.20941 0.0390867 0
1.20849 0.0190946 0
1.20949 -0.000861979 0
1.21249 -0.02086 0
1.21769 -0.0409814 0
1.22537 -0.0612637 0
1.23541 -0.0815608 0
1.2453 -0.101075 0
1.24401 -0.117126 0
1.19899 -0.123069 0
1.04534 -0.107977 0
0.718781 -0.066244 0
0.252568 -0.0183097 0
-0.303825 0.0237161 0
0.303825 0.00021164 0
0.796977 0.0237161 0
1.07551 0.0657271 0
1.19509 0.0917554 0
1.23334 0.0969236 0
1.23931 0.0883524 0
1.23593 0.0731708 0
1.2316 0.0554973 0
1.22871 0.0370838 0
1.22775 0.0185063 0
1.22879 -9.71179e-05 0
1.23191 -0.0187136 0
1.23727 -0.0373421 0
1.24497 -0.055914 0
1.25425 -0.0741041 0
1.2608 -0.090793 0
1.24975 -0.102897 0
1.18442 -0.103995 0
1.00505 -0.0858633 0
0.6725 -0.0485589 0
0.234891 -0.0124108 0
-0.281131 0.0168643 0
0.281132 0.000150391 0
0.756415 0.0168643 0
1.05038 0.0521382 0
1.1901 0.0776838 0
1.24162 0.0855994 0
1.25397 0.0802076 0
1.25299 0.0676095 0
1.24938 0.0519042 0
1.24665 0.0350851 0
1.24572 0.0179252 0
1.24677 0.00068163 0
1.2499 -0.016555 0
1.25521 -0.033714 0
1.26253 -0.0506372 0
1.27036 -0.0668483 0
1.27248 -0.0809875 0
1.25081 -0.0897987 0
1.16691 -0.0874837 0
0.969028 -0.0684438 0
0.637599 -0.0362859 0
0.222908 -0.00882195 0
-0.264995 0.0124732 0
0.264995 0.000111159 0
0.722358 0.0124732 0
1.02571 0.0418281 0
1.18246 0.0659534 0
1.24682 0.0755498 0
1.26614 0.0726782 0
1.26816 0.0623505 0
1.26562 0.0484729 0
1.26322 0.0331736 0
1.26237 0.0173801 0
1.26341 0.0014509 0
1.26647 -0.0144589 0
1.27155 -0.030223 0
1.27819 -0.0456093 0
1.28402 -0.060019 0
1.28099 -0.0719288 0
1.24857 -0.0780902 0
1.14853 -0.0735251 0
0.937979 -0.0548849 0
0.611082 -0.0276685 0
0.214391 -0.00650744 0
-0.25306 0.00961567 0
0.25306 8.56417e-05 0
0.694016 0.00961564 0
1.00242 0.0340457 0
1.17319 0.0563083 0
1.2496 0.0668104 0
1.27611 0.0658893 0
1.28156 0.0575128 0
1.28039 0.0452908 0
1.27847 0.0314021 0
1.27775 0.0168888 0
1.27877 0.00219304 0
1.28169 -0.0124774 0
1.2864 -0.0269523 0
1.2921 -0.0409394 0
1.29552 -0.0537437 0
1.28694 -0.063745 0
1.24416 -0.0678296 0
1.13053 -0.0618975 0
0.911702 -0.0443782 0
0.590652 -0.0215219 0
0.208108 -0.00494763 0
-0.243859 0.00769903 0
0.243859 6.85375e-05 0
0.670429 0.00769901 0
0.980925 0.028158 0
1.16305 0.0484317 0
1.25049 0.059304 0
1.2842 0.0598669 0
1.29336 0.0531455 0
1.2938 0.0424002 0
1.29248 0.0297971 0
1.29194 0.0164587 0
1.29294 0.00289531 0
1.29566 -0.0106423 0
1.29991 -0.023949 0
1.30446 -0.0366833 0
1.30517 -0.0480768 0
1.29089 -0.0564674 0
1.23844 -0.058959 0
1.11362 -0.0522989 0
0.889634 -0.0362363 0
0.574649 -0.0170649 0
0.203332 -0.00386289 0
-0.236492 0.00636394 0
0.236493 5.66303e-05 0
0.650676 0.00636391 0
0.961351 0.0236707 0
1.15256 0.0420123 0
1.24994 0.0529006 0
1.29069 0.054578 0
1.30373 0.0492507 0
1.30597 0.0398102 0
1.30536 0.0283653 0
1.30503 0.0160897 0
1.30601 0.00354903 0
1.30851 -0.00896993 0
1.3122 -0.0212329 0
1.31546 -0.0328579 0
1.31327 -0.0430227 0
1.29329 -0.0500671 0
1.23201 -0.0513599 0
1.09811 -0.044416 0
0.871124 -0.0299089 0
0.561903 -0.0137818 0
0.199603 -0.00309099 0
-0.230403 0.00539757 0
0.230404 4.80162e-05 0
0.633966 0.00539754 0
0.943643 0.0202143 0
1.14204 0.0367736 0
1.24832 0.0474547 0
1.29583 0.0499589 0
1.31285 0.0458017 0
1.31702 0.0375087 0
1.31721 0.0270994 0
1.31714 0.0157762 0
1.3181 0.00414884 0
1.32035 -0.00746457 0
1.32343 -0.0188042 0
1.32528 -0.0294538 0
1.32008 -0.0385543 0
1.29454 -0.044481 0
1.2253 -0.0448888 0
1.0841 -0.0379573 0
0.855554 -0.0249688 0
0.551582 -0.0113285 0
0.196619 -0.00253174 0
-0.225239 0.00467364 0
0.225239 4.15661e-05 0
0.619661 0.0046736 0
0.927655 0.0175185 0
1.13173 0.0324827 0
1.24591 0.042824 0
1.29985 0.0459336 0
1.32086 0.0427572 0
1.32707 0.0354708 0
1.32815 0.0259845 0
1.32837 0.0155097 0
1.32931 0.00469198 0
1.3313 -0.0061225 0
1.33371 -0.0166501 0
1.33407 -0.0264453 0
1.3258 -0.0346267 0
1.29493 -0.0396297 0
1.21861 -0.0393975 0
1.07156 -0.032667 0
0.842384 -0.0210896 0
0.543089 -0.00947116 0
0.194175 -0.00212036 0
-0.220767 0.00411536 0
0.220768 3.65938e-05 0
0.60726 0.00411532 0
0.913207 0.0153876 0
1.12175 0.0289491 0
1.24291 0.0388788 0
1.30291 0.0424243 0
1.32789 0.0400699 0
1.33623 0.0336665 0
1.33826 0.0250014 0
1.33881 0.0152807 0
1.33975 0.0051778 0
1.34147 -0.00493475 0
1.34317 -0.0147504 0
1.34196 -0.0237982 0
1.33063 -0.0311866 0
1.29471 -0.0354284 0
1.21211 -0.034745 0
1.06039 -0.0283279 0
0.831167 -0.0180233 0
0.535992 -0.0080478 0
0.192128 -0.00181357 0
-0.21683 0.00367423 0
0.216831 3.26661e-05 0
0.596377 0.00367419 0
0.900114 0.0136798 0
1.11216 0.0260193 0
1.23948 0.0355061 0
1.30519 0.0393579 0
1.33408 0.0376927 0
1.3446 0.032064 0
1.34765 0.0241302 0
1.34857 0.0150796 0
1.34952 0.00560725 0
1.35095 -0.00388934 0
1.3519 -0.0130809 0
1.3491 -0.0214745 0
1.33473 -0.0281783 0
1.29405 -0.0317942 0
1.20592 -0.0308033 0
1.05044 -0.0247591 0
0.821536 -0.0155821 0
0.529973 -0.0069443 0
0.190378 -0.00158169 0
-0.213315 0.0033183 0
0.213315 2.94976e-05 0
0.586717 0.00331825 0
0.8882 0.0122919 0
1.103 0.0235715 0
1.23576 0.0326089 0
1.30679 0.0366684 0
1.33951 0.0355812 0
1.35226 0.0306334 0
1.35639 0.0233518 0
1.35772 0.0148978 0
1.35869 0.00598252 0
1.35982 -0.00297284 0
1.36001 -0.0116163 0
1.35557 -0.0194358 0
1.33822 -0.0255479 0
1.2931 -0.0286497 0
1.20008 -0.0274591 0
1.04158 -0.0218126 0
0.813197 -0.013623 0
0.524796 -0.00607887 0
0.188851 -0.00140401 0
-0.21014 0.00302564 0
0.210141 2.68931e-05 0
0.578053 0.0030256 0
0.87731 0.0111482 0
1.09428 0.0215087 0
1.23185 0.0301062 0
1.30784 0.0342982 0
1.34429 0.0336958 0
1.35929 0.0293472 0
1.36455 0.0226491 0
1.36632 0.0147281 0
1.36733 0.00630661 0
1.36817 -0.00217143 0
1.36756 -0.0103315 0
1.36147 -0.0176456 0
1.34121 -0.023245 0
1.29195 -0.0259246 0
1.19463 -0.0246148 0
1.03367 -0.0193678 0
0.805913 -0.0120375 0
0.520283 -0.00539208 0
0.187496 -0.00126583 0
-0.207246 0.00278081 0
0.207246 2.47145e-05 0
0.570211 0.00278077 0
0.867308 0.0101928 0
1.08598 0.0197546 0
1.2278 0.0279302 0
1.30843 0.0321976 0
1.34849 0.0320019 0
1.36576 0.0281818 0
1.3722 0.0220071 0
1.37446 0.0145645 0
1.37552 0.00658315 0
1.37605 -0.00147167 0
1.37462 -0.00920334 0
1.36688 -0.0160703 0
1.3438 -0.0212241 0
1.29068 -0.023557 0
1.18957 -0.0221869 0
1.02659 -0.0173273 0
0.799497 -0.0107425 0
0.516299 -0.00484026 0
0.186274 -0.0011566 0
-0.204585 0.00257266 0
0.204586 2.28627e-05 0
0.563055 0.00257261 0
0.858076 0.00938394 0
1.07808 0.0182491 0
1.22368 0.0260253 0
1.30862 0.0303246 0
1.35218 0.03047 0
1.37172 0.0271168 0
1.37939 0.0214135 0
1.38216 0.0144025 0
1.3833 0.00681608 0
1.38351 -0.000860863 0
1.38125 -0.00821022 0
1.37186 -0.0146795 0
1.34605 -0.0194446 0
1.28936 -0.0214927 0
1.18487 -0.0201051 0
1.02024 -0.0156128 0
0.793799 -0.00967431 0
0.512743 -0.00439099 0
0.185158 -0.0010687 0
-0.202124 0.00239303 0
0.202125 2.12649e-05 0
0.556479 0.00239298 0
0.849517 0.0086904 0
1.07058 0.0169445 0
1.21953 0.0243457 0
1.30848 0.0286442 0
1.35542 0.0290753 0
1.37723 0.0261356 0
1.38615 0.0208582 0
1.38949 0.0142391 0
1.39071 0.0070095 0
1.39061 -0.000327339 0
1.3875 -0.00733302 0
1.37646 -0.0134466 0
1.34803 -0.0178713 0
1.28802 -0.0196851 0
1.18054 -0.0183104 0
1.0145 -0.0141613 0
0.788698 -0.00878375 0
0.509536 -0.00402007 0
0.184127 -0.000996557 0
-0.199835 0.0022359 0
0.199836 1.98674e-05 0
0.550399 0.00223585 0
0.841548 0.00808847 0
1.06343 0.0158035 0
1.21538 0.0228541 0
1.30806 0.0271269 0
1.35825 0.027797 0
1.38232 0.0252242 0
1.39255 0.0203334 0
1.39647 0.014072 0
1.3978 0.0071675 0
1.39737 0.000139444 0
1.3934 -0.00655482 0
1.38073 -0.0123483 0
1.34978 -0.0164735 0
1.28669 -0.0180942 0
1.17653 -0.0167538 0
1.00931 -0.0129222 0
0.7841 -0.00803294 0
0.506617 -0.00370925 0
0.183165 -0.000936085 0
-0.197696 0.00209675 0
0.197697 1.863e-05 0
0.544749 0.0020967 0
0.8341 0.00756012 0
1.05662 0.0147964 0
1.21125 0.0215198 0
1.30741 0.0257483 0
1.36074 0.0266181 0
1.38705 0.0243715 0
1.39859 0.0198326 0
1.40314 0.0138999 0
1.40458 0.00729404 0
1.40384 0.000548872 0
1.399 -0.00586091 0
1.38471 -0.0113645 0
1.35135 -0.015225 0
1.2854 -0.0166863 0
1.17283 -0.0153947 0
1.00459 -0.011855 0
0.779926 -0.00739243 0
0.50394 -0.00344477 0
0.182262 -0.000884288 0
-0.195691 0.00197221 0
0.195692 1.75226e-05 0
0.539475 0.00197216 0
0.827114 0.00709152 0
1.05013 0.0138997 0
1.20717 0.020318 0
1.30657 0.0244882 0
1.36291 0.0255244 0
1.39143 0.0235684 0
1.40432 0.0193512 0
1.40951 0.0137222 0
1.4111 0.00739287 0
1.41003 0.000909199 0
1.40431 -0.00523859 0
1.38844 -0.0104779 0
1.35276 -0.0141033 0
1.28415 -0.0154328 0
1.16942 -0.0141992 0
1.00028 -0.0109272 0
0.776114 -0.00683931 0
0.501469 -0.00321614 0
0.181409 -0.000838953 0
-0.193804 0.00185971 0
0.193805 1.65224e-05 0
0.534532 0.00185966 0
0.820541 0.00667198 0
1.04394 0.0130949 0
1.20315 0.0192283 0
1.30558 0.0233299 0
1.3648 0.0245041 0
1.3955 0.0228075 0
1.40976 0.0188855 0
1.41563 0.0135387 0
1.41736 0.00746744 0
1.41596 0.0012276 0
1.40937 -0.00467701 0
1.39194 -0.00967406 0
1.35404 -0.0130894 0
1.28296 -0.0143094 0
1.16626 -0.0131397 0
0.996337 -0.0101127 0
0.772617 -0.00635567 0
0.499174 -0.00301538 0
0.180599 -0.000798442 0
-0.192025 0.00175727 0
0.192026 1.56117e-05 0
0.529887 0.00175722 0
0.81434 0.00629318 0
1.03801 0.0123671 0
1.19919 0.018234 0
1.30444 0.0222594 0
1.36644 0.0235475 0
1.39929 0.0220831 0
1.41492 0.0184327 0
1.42149 0.0133496 0
1.42338 0.00752086 0
1.42166 0.00151025 0
1.4142 -0.00416695 0
1.39524 -0.00894043 0
1.35522 -0.0121672 0
1.28183 -0.013296 0
1.16334 -0.0121932 0
0.99271 -0.00939056 0
0.769392 -0.00592747 0
0.497034 -0.00283634 0
0.179829 -0.000761536 0
-0.190345 0.00166336 0
0.190346 1.4777e-05 0
0.525508 0.00166331 0
0.808476 0.00594857 0
1.03235 0.0117042 0
1.1953 0.0173214 0
1.3032 0.021265 0
1.36785 0.0226467 0
1.40281 0.0213902 0
1.41983 0.0179907 0
1.42712 0.0131551 0
1.42918 0.00755586 0
1.42715 0.00176237 0
1.4188 -0.00370069 0
1.39836 -0.00826665 0
1.35631 -0.0113232 0
1.28077 -0.0123755 0
1.16063 -0.0113408 0
0.989367 -0.00874379 0
0.766408 -0.00554364 0
0.495031 -0.00267429 0
0.179094 -0.000727322 0
-0.188754 0.00157678 0
0.188755 1.40074e-05 0
0.521371 0.00157674 0
0.802919 0.00563293 0
1.02693 0.0110965 0
1.19149 0.0164789 0
1.30187 0.020337 0
1.36906 0.0217946 0
1.4061 0.0207248 0
1.4245 0.0175577 0
1.43252 0.0129555 0
1.43478 0.00757477 0
1.43242 0.00198834 0
1.42321 -0.00327176 0
1.40131 -0.007644 0
1.35733 -0.0105458 0
1.27977 -0.0115337 0
1.15812 -0.0105669 0
0.986278 -0.0081588 0
0.763638 -0.00519548 0
0.493152 -0.00252558 0
0.178392 -0.000695114 0
-0.187245 0.00149657 0
0.187247 1.32945e-05 0
0.517455 0.00149653 0
0.797645 0.00534206 0
1.02173 0.0105362 0
1.18777 0.0156971 0
1.30046 0.0194668 0
1.3701 0.0209854 0
1.40916 0.0200836 0
1.42894 0.0171324 0
1.43772 0.0127512 0
1.44017 0.0075795 0
1.4375 0.00219173 0
1.42744 -0.00287488 0
1.40411 -0.00706524 0
1.35828 -0.00982567 0
1.27884 -0.0107588 0
1.1558 -0.00985881 0
0.983417 -0.0076246 0
0.761061 -0.00487606 0
0.491385 -0.00238736 0
0.177722 -0.000664391 0
-0.185814 0.00142192 0
0.185815 1.26311e-05 0
0.513742 0.00142189 0
0.79263 0.00507255 0
1.01675 0.0100165 0
1.18413 0.014968 0
1.29899 0.0186473 0
1.37097 0.0202139 0
1.41201 0.0194635 0
1.43317 0.0167134 0
1.44271 0.0125421 0
1.44538 0.00757153 0
1.44239 0.00237539 0
1.43148 -0.00250575 0
1.40678 -0.00652444 0
1.35919 -0.00915472 0
1.27797 -0.010041 0
1.15364 -0.00920591 0
0.980764 -0.00713233 0
0.758659 -0.00457992 0
0.489722 -0.00225741 0
0.177081 -0.000634757 0
-0.184454 0.0013522 0
0.184455 1.20115e-05 0
0.510218 0.00135218 0
0.787857 0.00482156 0
1.01197 0.00953207 0
1.18058 0.0142845 0
1.29748 0.0178722 0
1.37169 0.0194755 0
1.41466 0.0188615 0
1.4372 0.0162993 0
1.44751 0.0123283 0
1.45039 0.00755189 0
1.44711 0.00254147 0
1.43536 -0.002161 0
1.40932 -0.00601676 0
1.36004 -0.00852647 0
1.27716 -0.00937213 0
1.15164 -0.00859965 0
0.9783 -0.00667487 0
0.756417 -0.00430274 0
0.488156 -0.00213402 0
0.176468 -0.000605912 0
-0.183161 0.00128686 0
0.183162 1.14308e-05 0
0.506869 0.00128684 0
0.78331 0.00458668 0
1.00738 0.00907811 0
1.17711 0.0136408 0
1.29593 0.0171357 0
1.37229 0.018766 0
1.41714 0.0182752 0
1.44103 0.0158889 0
1.45212 0.0121095 0
1.45523 0.00752118 0
1.45165 0.00269152 0
1.43909 -0.00183806 0
1.41174 -0.00553839 0
1.36086 -0.00793559 0
1.27642 -0.00874548 0
1.14978 -0.00803305 0
0.976011 -0.00624652 0
0.754324 -0.00404115 0
0.486681 -0.00201588 0
0.175884 -0.000577634 0
-0.18193 0.0012254 0
0.181932 1.08847e-05 0
0.503683 0.00122539 0
0.778974 0.00436588 0
1.00298 0.00865056 0
1.17374 0.0130314 0
1.29436 0.0164327 0
1.37276 0.0180812 0
1.41944 0.0177018 0
1.44468 0.0154806 0
1.45656 0.0118849 0
1.4599 0.00747957 0
1.45602 0.00282648 0
1.44266 -0.00153508 0
1.41406 -0.00508638 0
1.36164 -0.00737783 0
1.27573 -0.0081557 0
1.14806 -0.0075005 0
0.973882 -0.00584278 0
0.752369 -0.00379255 0
0.485293 -0.00190202 0
0.175327 -0.000549766 0
-0.180759 0.00116743 0
0.18076 1.03696e-05 0
0.500652 0.00116743 0
0.774837 0.00415735 0
0.998746 0.00824585 0
1.17046 0.0124517 0
1.29277 0.0157586 0
1.37313 0.0174175 0
1.42159 0.0171386 0
1.44816 0.0150727 0
1.46081 0.0116537 0
1.46439 0.00742681 0
1.46023 0.00294677 0
1.44609 -0.00125088 0
1.41627 -0.00465855 0
1.36239 -0.00684987 0
1.2751 -0.0075985 0
1.14646 -0.00699758 0
0.971903 -0.00546018 0
0.750544 -0.00355498 0
0.483988 -0.00179175 0
0.174797 -0.000522206 0
-0.179642 0.00111256 0
0.179643 9.88208e-06 0
0.497766 0.00111257 0
0.77089 0.00395949 0
0.994686 0.00786073 0
1.16726 0.0118973 0
1.29117 0.0151087 0
1.3734 0.016771 0
1.42358 0.0165828 0
1.45146 0.0146633 0
1.46489 0.0114147 0
1.46871 0.00736222 0
1.46429 0.0030523 0
1.44938 -0.000984855 0
1.41839 -0.00425345 0
1.36312 -0.00634922 0
1.27452 -0.0070706 0
1.14497 -0.00652088 0
0.970064 -0.00509613 0
0.748842 -0.00332706 0
0.482763 -0.00168463 0
0.174293 -0.000494906 0
-0.178578 0.00106045 0
0.17858 9.4191e-06 0
0.495017 0.00106048 0
0.767124 0.00377084 0
0.990789 0.00749227 0
1.16416 0.0113641 0
1.28956 0.0144789 0
1.37358 0.016138 0
1.42543 0.0160315 0
1.4546 0.0142502 0
1.4688 0.0111662 0
1.47288 0.00728478 0
1.46818 0.00314256 0
1.45254 -0.000736925 0
1.42041 -0.0038702 0
1.36381 -0.00587413 0
1.27399 -0.00656954 0
1.1436 -0.00606791 0
0.968357 -0.00474876 0
0.747257 -0.0031079 0
0.481615 -0.00158043 0
0.173816 -0.000467867 0
-0.177564 0.00101076 0
0.177566 8.97766e-06 0
0.492401 0.00101081 0
0.763532 0.00359 0
0.987052 0.00713766 0
1.16116 0.0108482 0
1.28796 0.013865 0
1.37368 0.0155148 0
1.42715 0.0154817 0
1.45757 0.0138311 0
1.47255 0.0109065 0
1.47688 0.00719312 0
1.47193 0.0032166 0
1.45556 -0.00050747 0
1.42235 -0.00350848 0
1.36449 -0.0054235 0
1.27351 -0.00609363 0
1.14233 -0.0056369 0
0.966773 -0.00441687 0
0.745783 -0.00289702 0
0.480541 -0.00147912 0
0.173365 -0.000441132 0
-0.176598 0.000963158 0
0.176599 8.55475e-06 0
0.489911 0.00096322 0
0.760107 0.00341563 0
0.98347 0.00679423 0
1.15824 0.0103459 0
1.28637 0.0132629 0
1.37372 0.0148974 0
1.42875 0.0149302 0
1.4604 0.0134033 0
1.47614 0.0106335 0
1.48072 0.00708555 0
1.47553 0.00327318 0
1.45846 -0.00029725 0
1.4242 -0.00316843 0
1.36513 -0.00499676 0
1.27307 -0.00564182 0
1.14115 -0.00522678 0
0.965306 -0.00409981 0
0.744415 -0.00269427 0
0.47954 -0.00138081 0
0.17294 -0.000414782 0
-0.175677 0.000917272 0
0.175678 8.14714e-06 0
0.487544 0.000917359 0
0.756845 0.00324634 0
0.980041 0.00645935 0
1.15543 0.00985367 0
1.28479 0.0126686 0
1.37369 0.0142822 0
1.43022 0.0143736 0
1.46307 0.0129642 0
1.47956 0.0103449 0
1.4844 0.00696018 0
1.47898 0.00331076 0
1.46123 -0.000107334 0
1.42596 -0.00285055 0
1.36576 -0.00459383 0
1.27267 -0.0052136 0
1.14006 -0.00483701 0
0.96395 -0.00379735 0
0.743147 -0.00249979 0
0.478608 -0.00128574 0
0.17254 -0.000388929 0
-0.1748 0.000872709 0
0.174801 7.75131e-06 0
0.485296 0.000872827 0
0.753744 0.00308073 0
0.976764 0.00613036 0
1.15271 0.00936778 0
1.28323 0.0120781 0
1.3736 0.0136653 0
1.43159 0.0138087 0
1.4656 0.0125109 0
1.48283 0.0100383 0
1.48792 0.00681497 0
1.48228 0.00332767 0
1.46388 6.09987e-05 0
1.42764 -0.00255561 0
1.36636 -0.00421496 0
1.2723 -0.00480885 0
1.13906 -0.00446747 0
0.962698 -0.00350963 0
0.741976 -0.00231392 0
0.477743 -0.00119423 0
0.172165 -0.000363709 0
-0.173966 0.000829032 0
0.173967 7.36338e-06 0
0.483165 0.000829188 0
0.7508 0.00291735 0
0.973639 0.00580464 0
1.1501 0.00888471 0
1.2817 0.0114874 0
1.37346 0.0130429 0
1.43284 0.013232 0
1.46799 0.0120404 0
1.48595 0.0097112 0
1.49129 0.00664781 0
1.48543 0.00332212 0
1.46641 0.000206351 0
1.42925 -0.00228457 0
1.36693 -0.00386064 0
1.27197 -0.00442781 0
1.13813 -0.00411836 0
0.961544 -0.003237 0
0.740895 -0.00213714 0
0.476942 -0.00110666 0
0.171815 -0.000339269 0
-0.173174 0.000785763 0
0.173174 6.97912e-06 0
0.481149 0.000785967 0
0.748013 0.00275467 0
0.970666 0.00547954 0
1.14758 0.00840098 0
1.2802 0.0108927 0
1.37328 0.0124113 0
1.43399 0.0126403 0
1.47024 0.0115502 0
1.4889 0.00936131 0
1.4945 0.00645666 0
1.48844 0.00329238 0
1.46882 0.000327324 0
1.43077 -0.00203842 0
1.36748 -0.00353151 0
1.27168 -0.00407085 0
1.13728 -0.00379003 0
0.960483 -0.00297993 0
0.739901 -0.00196995 0
0.476201 -0.00102342 0
0.171488 -0.000315757 0
-0.172423 0.0007424 0
0.172423 6.59406e-06 0
0.479249 0.000742661 0
0.745382 0.00259123 0
0.967846 0.00515253 0
1.14518 0.00791332 0
1.27874 0.0102906 0
1.37306 0.0117671 0
1.43504 0.0120307 0
1.47235 0.0110375 0