# vtk DataFile Version 3.0
vtk output
ASCII
DATASET UNSTRUCTURED_GRID
POINTS 1913 double
0.045977 0 0
0.045977 0.0952381 0
0.045977 0.142857 0
0.045977 0.190476 0
0.045977 0.238095 0
0.045977 0.285714 0
0.045977 0.333333 0
0.045977 0.380952 0
0.045977 0.428571 0
0.045977 0.47619 0
0.045977 0.52381 0
0.045977 0.571429 0
0.045977 0.619048 0
0.045977 0.666667 0
0.045977 0.714286 0
0.045977 0.761905 0
0.045977 0.809524 0
0.045977 0.857143 0
0.045977 0.904762 0
0.045977 0.952381 0
0.045977 1 0
0.091954 0 0
0.091954 0.047619 0
0.091954 0.0952381 0
0.091954 0.142857 0
0.091954 0.190476 0
0.091954 0.238095 0
0.091954 0.285714 0
0.091954 0.333333 0
0.091954 0.380952 0
0.091954 0.428571 0
0.091954 0.47619 0
0.091954 0.52381 0
0.091954 0.571429 0
0.091954 0.619048 0
0.091954 0.666667 0
0.091954 0.714286 0
0.091954 0.761905 0
0.091954 0.809524 0
0.091954 0.857143 0
0.091954 0.904762 0
0.091954 0.952381 0
0.091954 1 0
0.137931 0 0
0.137931 0.047619 0
0.137931 0.0952381 0
0.137931 0.142857 0
0.137931 0.190476 0
0.137931 0.238095 0
0.137931 0.285714 0
0.137931 0.333333 0
0.137931 0.380952 0
0.137931 0.428571 0
0.137931 0.47619 0
0.137931 0.52381 0
0.137931 0.571429 0
0.137931 0.619048 0
0.137931 0.666667 0
0.137931 0.714286 0
0.137931 0.761905 0
0.137931 0.809524 0
0.137931 0.857143 0
0.137931 0.904762 0
0.137931 0.952381 0
0.137931 1 0
0.183908 0 0
0.183908 0.047619 0
0.183908 0.0952381 0
0.183908 0.142857 0
0.183908 0.190476 0
0.183908 0.238095 0
0.183908 0.285714 0
0.183908 0.333333 0
0.183908 0.380952 0
0.183908 0.428571 0
0.183908 0.47619 0
0.183908 0.52381 0
0.183908 0.571429 0
0.183908 0.619048 0
0.183908 0.666667 0
0.183908 0.714286 0
0.183908 0.761905 0
0.183908 0.809524 0
0.183908 0.857143 0
0.183908 0.904762 0
0.183908 0.952381 0
0.183908 1 0
0.229885 0 0
0.229885 0.047619 0
0.229885 0.0952381 0
0.229885 0.142857 0
0.229885 0.190476 0
0.229885 0.238095 0
0.229885 0.285714 0
0.229885 0.333333 0
0.229885 0.380952 0
0.229885 0.428571 0
0.229885 0.47619 0
0.229885 0.52381 0
0.229885 0.571429 0
0.229885 0.619048 0
0.229885 0.666667 0
0.229885 0.714286 0
0.229885 0.761905 0
0.229885 0.809524 0
0.229885 0.857143 0
0.229885 0.904762 0
0.229885 0.952381 0
0.229885 1 0
0.275862 0 0
0.275862 0.047619 0
0.275862 0.0952381 0
0.275862 0.142857 0
0.275862 0.190476 0
0.275862 0.238095 0
0.275862 0.285714 0
0.275862 0.333333 0
0.275862 0.380952 0
0.275862 0.428571 0
0.275862 0.47619 0
0.275862 0.52381 0
0.275862 0.571429 0
0.275862 0.619048 0
0.275862 0.666667 0
0.275862 0.714286 0
0.275862 0.761905 0
0.275862 0.809524 0
0.275862 0.857143 0
0.275862 0.904762 0
0.275862 0.952381 0
0.275862 1 0
0.321839 0 0
0.321839 0.047619 0
0.321839 0.0952381 0
0.321839 0.142857 0
0.321839 0.190476 0
0.321839 0.238095 0
0.321839 0.285714 0
0.321839 0.333333 0
0.321839 0.380952 0
0.321839 0.428571 0
0.321839 0.47619 0
0.321839 0.52381 0
0.321839 0.571429 0
0.321839 0.619048 0
0.321839 0.666667 0
0.321839 0.714286 0
0.321839 0.761905 0
0.321839 0.809524 0
0.321839 0.857143 0
0.321839 0.904762 0
0.321839 0.952381 0
0.321839 1 0
0.367816 0 0
0.367816 0.047619 0
0.367816 0.0952381 0
0.367816 0.142857 0
0.367816 0.190476 0
0.367816 0.238095 0
0.367816 0.285714 0
0.367816 0.333333 0
0.367816 0.380952 0
0.367816 0.428571 0
0.367816 0.47619 0
0.367816 0.52381 0
0.367816 0.571429 0
0.367816 0.619048 0
0.367816 0.666667 0
0.367816 0.714286 0
0.367816 0.761905 0
0.367816 0.809524 0
0.367816 0.857143 0
0.367816 0.904762 0
0.367816 0.952381 0
0.367816 1 0
0.413793 0 0
0.413793 0.047619 0
0.413793 0.0952381 0
0.413793 0.142857 0
0.413793 0.190476 0
0.413793 0.238095 0
0.413793 0.285714 0
0.413793 0.333333 0
0.413793 0.380952 0
0.413793 0.428571 0
0.413793 0.47619 0
0.413793 0.52381 0
0.413793 0.571429 0
0.413793 0.619048 0
0.413793 0.666667 0
0.413793 0.714286 0
0.413793 0.761905 0
0.413793 0.809524 0
0.413793 0.857143 0
0.413793 0.904762 0
0.413793 0.952381 0
0.413793 1 0
0.45977 0 0
0.45977 0.047619 0
0.45977 0.0952381 0
0.45977 0.142857 0
0.45977 0.190476 0
0.45977 0.238095 0
0.45977 0.285714 0
0.45977 0.333333 0
0.45977 0.380952 0
0.45977 0.428571 0
0.45977 0.47619 0
0.45977 0.52381 0
0.45977 0.571429 0
0.45977 0.619048 0
0.45977 0.666667 0
0.45977 0.714286 0
0.45977 0.761905 0
0.45977 0.809524 0
0.45977 0.857143 0
0.45977 0.904762 0
0.45977 0.952381 0
0.45977 1 0
0.505747 0 0
0.505747 0.047619 0
0.505747 0.0952381 0
0.505747 0.142857 0
0.505747 0.190476 0
0.505747 0.238095 0
0.505747 0.285714 0
0.505747 0.333333 0
0.505747 0.380952 0
0.505747 0.428571 0
0.505747 0.47619 0
0.505747 0.52381 0
0.505747 0.571429 0
0.505747 0.619048 0
0.505747 0.666667 0
0.505747 0.714286 0
0.505747 0.761905 0
0.505747 0.809524 0
0.505747 0.857143 0
0.505747 0.904762 0
0.505747 0.952381 0
0.505747 1 0
0.551724 0 0
0.551724 0.047619 0
0.551724 0.0952381 0
0.551724 0.142857 0
0.551724 0.190476 0
0.551724 0.238095 0
0.551724 0.285714 0
0.551724 0.333333 0
0.551724 0.380952 0
0.551724 0.428571 0
0.551724 0.47619 0
0.551724 0.52381 0
0.551724 0.571429 0
0.551724 0.619048 0
0.551724 0.666667 0
0.551724 0.714286 0
0.551724 0.761905 0
0.551724 0.809524 0
0.551724 0.857143 0
0.551724 0.904762 0
0.551724 0.952381 0
0.551724 1 0
0.597701 0 0
0.597701 0.047619 0
0.597701 0.0952381 0
0.597701 0.142857 0
0.597701 0.190476 0
0.597701 0.238095 0
0.597701 0.285714 0
0.597701 0.333333 0
0.597701 0.380952 0
0.597701 0.428571 0
0.597701 0.47619 0
0.597701 0.52381 0
0.597701 0.571429 0
0.597701 0.619048 0
0.597701 0.666667 0
0.597701 0.714286 0
0.597701 0.761905 0
0.597701 0.809524 0
0.597701 0.857143 0
0.597701 0.904762 0
0.597701 0.952381 0
0.597701 1 0
0.643678 0 0
0.643678 0.047619 0
0.643678 0.0952381 0
0.643678 0.142857 0
0.643678 0.190476 0
0.643678 0.238095 0
0.643678 0.285714 0
0.643678 0.333333 0
0.643678 0.380952 0
0.643678 0.428571 0
0.643678 0.47619 0
0.643678 0.52381 0
0.643678 0.571429 0
0.643678 0.619048 0
0.643678 0.666667 0
0.643678 0.714286 0
0.643678 0.761905 0
0.643678 0.809524 0
0.643678 0.857143 0
0.643678 0.904762 0
0.643678 0.952381 0
0.643678 1 0
0.689655 0 0
0.689655 0.047619 0
0.689655 0.0952381 0
0.689655 0.142857 0
0.689655 0.190476 0
0.689655 0.238095 0
0.689655 0.285714 0
0.689655 0.333333 0
0.689655 0.380952 0
0.689655 0.428571 0
0.689655 0.47619 0
0.689655 0.52381 0
0.689655 0.571429 0
0.689655 0.619048 0
0.689655 0.666667 0
0.689655 0.714286 0
0.689655 0.761905 0
0.689655 0.809524 0
0.689655 0.857143 0
0.689655 0.904762 0
0.689655 0.952381 0
0.689655 1 0
0.735632 0 0
0.735632 0.047619 0
0.735632 0.0952381 0
0.735632 0.142857 0
0.735632 0.190476 0
0.735632 0.238095 0
0.735632 0.285714 0
0.735632 0.333333 0
0.735632 0.380952 0
0.735632 0.428571 0
0.735632 0.47619 0
0.735632 0.52381 0
0.735632 0.571429 0
0.735632 0.619048 0
0.735632 0.666667 0
0.735632 0.714286 0
0.735632 0.761905 0
0.735632 0.809524 0
0.735632 0.857143 0
0.735632 0.904762 0
0.735632 0.952381 0
0.735632 1 0
0.781609 0 0
0.781609 0.047619 0
0.781609 0.0952381 0
0.781609 0.142857 0
0.781609 0.190476 0
0.781609 0.238095 0
0.781609 0.285714 0
0.781609 0.333333 0
0.781609 0.380952 0
0.781609 0.428571 0
0.781609 0.47619 0
0.781609 0.52381 0
0.781609 0.571429 0
0.781609 0.619048 0
0.781609 0.666667 0
0.781609 0.714286 0
0.781609 0.761905 0
0.781609 0.809524 0
0.781609 0.857143 0
0.781609 0.904762 0
0.781609 0.952381 0
0.781609 1 0
0.827586 0 0
0.827586 0.047619 0
0.827586 0.0952381 0
0.827586 0.142857 0
0.827586 0.190476 0
0.827586 0.238095 0
0.827586 0.285714 0
0.827586 0.333333 0
0.827586 0.380952 0
0.827586 0.428571 0
0.827586 0.47619 0
0.827586 0.52381 0
0.827586 0.571429 0
0.827586 0.619048 0
0.827586 0.666667 0
0.827586 0.714286 0
0.827586 0.761905 0
0.827586 0.809524 0
0.827586 0.857143 0
0.827586 0.904762 0
0.827586 0.952381 0
0.827586 1 0
0.873563 0 0
0.873563 0.047619 0
0.873563 0.0952381 0
0.873563 0.142857 0
0.873563 0.190476 0
0.873563 0.238095 0
0.873563 0.285714 0
0.873563 0.333333 0
0.873563 0.380952 0
0.873563 0.428571 0
0.873563 0.47619 0
0.873563 0.52381 0
0.873563 0.571429 0
0.873563 0.619048 0
0.873563 0.666667 0
0.873563 0.714286 0
0.873563 0.761905 0
0.873563 0.809524 0
0.873563 0.857143 0
0.873563 0.904762 0
0.873563 0.952381 0
0.873563 1 0
0.91954 0 0
0.91954 0.047619 0
0.91954 0.0952381 0
0.91954 0.142857 0
0.91954 0.190476 0
0.91954 0.238095 0
0.91954 0.285714 0
0.91954 0.333333 0
0.91954 0.380952 0
0.91954 0.428571 0
0.91954 0.47619 0
0.91954 0.52381 0
0.91954 0.571429 0
0.91954 0.619048 0
0.91954 0.666667 0
0.91954 0.714286 0
0.91954 0.761905 0
0.91954 0.809524 0
0.91954 0.857143 0
0.91954 0.904762 0
0.91954 0.952381 0
0.91954 1 0
0.965517 0 0
0.965517 0.047619 0
0.965517 0.0952381 0
0.965517 0.142857 0
0.965517 0.190476 0
0.965517 0.238095 0
0.965517 0.285714 0
0.965517 0.333333 0
0.965517 0.380952 0
0.965517 0.428571 0
0.965517 0.47619 0
0.965517 0.52381 0
0.965517 0.571429 0
0.965517 0.619048 0
0.965517 0.666667 0
0.965517 0.714286 0
0.965517 0.761905 0
0.965517 0.809524 0
0.965517 0.857143 0
0.965517 0.904762 0
0.965517 0.952381 0
0.965517 1 0
1.01149 0 0
1.01149 0.047619 0
1.01149 0.0952381 0
1.01149 0.142857 0
1.01149 0.190476 0
1.01149 0.238095 0
1.01149 0.285714 0
1.01149 0.333333 0
1.01149 0.380952 0
1.01149 0.428571 0
1.01149 0.47619 0
1.01149 0.52381 0
1.01149 0.571429 0
1.01149 0.619048 0
1.01149 0.666667 0
1.01149 0.714286 0
1.01149 0.761905 0
1.01149 0.809524 0
1.01149 0.857143 0
1.01149 0.904762 0
1.01149 0.952381 0
1.01149 1 0
1.05747 0 0
1.05747 0.047619 0
1.05747 0.0952381 0
1.05747 0.142857 0
1.05747 0.190476 0
1.05747 0.238095 0
1.05747 0.285714 0
1.05747 0.333333 0
1.05747 0.380952 0
1.05747 0.428571 0
1.05747 0.47619 0
1.05747 0.52381 0
1.05747 0.571429 0
1.05747 0.619048 0
1.05747 0.666667 0
1.05747 0.714286 0
1.05747 0.761905 0
1.05747 0.809524 0
1.05747 0.857143 0
1.05747 0.904762 0
1.05747 0.952381 0
1.05747 1 0
1.10345 0 0
1.10345 0.047619 0
1.10345 0.0952381 0
1.10345 0.142857 0
1.10345 0.190476 0
1.10345 0.238095 0
1.10345 0.285714 0
1.10345 0.333333 0
1.10345 0.380952 0
1.10345 0.428571 0
1.10345 0.47619 0
1.10345 0.52381 0
1.10345 0.571429 0
[...]
POINT_DATA 1913
VECTORS velocity[m/s] double
-0 0.209418 0
0 0.209422 0
0 0.209583 0
0 0.181511 0
0 0.151675 0
0 0.123582 0
0 0.0973894 0
0 0.0727388 0
0 0.0491867 0
0 0.0262868 0
0 0.00360193 0
0 -0.0193111 0
0 -0.0429287 0
0 -0.0677973 0
0 -0.0945824 0
0 -0.124137 0
0 -0.157598 0
0 -0.196504 0
0 -0.242536 0
0 -0.292762 0
0 -0.303736 0
-0.869731 0.184991 0
0.869733 0.00163162 0
1.07178 0.184995 0
1.09904 0.208793 0
1.10075 0.184753 0
1.09908 0.153856 0
1.09725 0.124748 0
1.09577 0.0980369 0
1.09471 0.0731305 0
1.09408 0.0494379 0
1.09386 0.0264518 0
1.09407 0.00370893 0
1.09473 -0.0192473 0
1.09592 -0.0429032 0
1.09774 -0.0678171 0
1.10038 -0.0946794 0
1.10411 -0.124406 0
1.10932 -0.158276 0
1.11616 -0.197837 0
1.12016 -0.242519 0
1.08223 -0.276506 0
0.778345 -0.230947 0
-0.692713 0.14428 0
0.692712 0.00129252 0
1.04881 0.144284 0
1.12227 0.189539 0
1.1306 0.178591 0
1.1272 0.151643 0
1.12306 0.123408 0
1.11983 0.0970105 0
1.1176 0.0724006 0
1.11628 0.0490337 0
1.11583 0.0263949 0
1.11625 0.00402561 0
1.11758 -0.0185139 0
1.11998 -0.0416836 0
1.12368 -0.0660057 0
1.12909 -0.092119 0
1.13682 -0.120841 0
1.14753 -0.153094 0
1.15931 -0.188833 0
1.15299 -0.221859 0
1.03825 -0.225464 0
0.555375 -0.143651 0
-0.554674 0.105027 0
0.554669 0.000940232 0
1.00513 0.105031 0
1.13285 0.160979 0
1.15663 0.164024 0
1.15447 0.144381 0
1.14855 0.119166 0
1.1436 0.0941881 0
1.14017 0.0705263 0
1.13815 0.0479703 0
1.13744 0.0261036 0
1.13802 0.0045199 0
1.13997 -0.0171706 0
1.14348 -0.0393674 0
1.14891 -0.0625106 0
1.15683 -0.0871076 0
1.16798 -0.113696 0
1.18205 -0.142408 0
1.19121 -0.170947 0
1.15648 -0.188615 0
0.959275 -0.16793 0
0.416691 -0.0818117 0
-0.454195 0.0732395 0
0.454186 0.000655056 0
0.951123 0.0732439 0
1.12992 0.130989 0
1.17561 0.144805 0
1.17883 0.133168 0
1.17268 0.112295 0
1.16646 0.0896737 0
1.16196 0.0675679 0
1.15928 0.0462728 0
1.1583 0.0255652 0
1.15898 0.00513565 0
1.16141 -0.0153269 0
1.16584 -0.0361357 0
1.17267 -0.0576164 0
1.18252 -0.0800922 0
1.19571 -0.10372 0
1.20962 -0.127733 0
1.20829 -0.14801 0
1.13653 -0.15227 0
0.876139 -0.119207 0
0.337714 -0.0460726 0
-0.384132 0.0498072 0
0.384119 0.000445131 0
0.895382 0.0498116 0
1.11659 0.103766 0
1.18685 0.124258 0
1.19899 0.119653 0
1.19454 0.103494 0
1.18782 0.0837864 0
1.18253 0.0636869 0
1.17928 0.0440124 0
1.17803 0.0247797 0
1.17875 0.00580551 0
1.18152 -0.0131264 0
1.18659 -0.0322301 0
1.19439 -0.0517039 0
1.20535 -0.0716696 0
1.21891 -0.0918988 0
1.22921 -0.110876 0
1.21241 -0.123522 0
1.10462 -0.118426 0
0.80554 -0.0824789 0
0.293243 -0.0266134 0
-0.336491 0.0336111 0
0.336473 0.000300183 0
0.843301 0.0336158 0
1.09682 0.0809057 0
1.19131 0.104487 0
1.21461 0.105266 0
1.21358 0.093529 0
1.20723 0.0769213 0
1.20154 0.0590906 0
1.19787 0.0412832 0
1.19637 0.0237558 0
1.19704 0.00645862 0
1.19997 -0.0107258 0
1.20541 -0.0279124 0
1.21368 -0.0451752 0
1.22489 -0.0624466 0
1.23725 -0.0791725 0
1.24143 -0.0933553 0
1.20751 -0.0997798 0
1.06992 -0.0892762 0
0.751615 -0.0559706 0
0.267562 -0.015754 0
-0.304347 0.0228488 0
0.304325 0.000203939 0
0.797654 0.0228552 0
1.07407 0.0624714 0
1.19057 0.0864601 0
1.22595 0.0909225 0
1.22963 0.082991 0
1.22446 0.0694171 0
1.21875 0.0539656 0
1.2148 0.0381727 0
1.21308 0.0225008 0
1.21364 0.0070259 0
1.21658 -0.00827619 0
1.22209 -0.0234294 0
1.23037 -0.0383964 0
1.24105 -0.0529487 0
1.25095 -0.0662949 0
1.24765 -0.0762292 0
1.19738 -0.0780016 0
1.03778 -0.0651298 0
0.712799 -0.0369697 0
0.252365 -0.00925041 0
-0.282502 0.0157335 0
0.282474 0.00014036 0
0.759417 0.0157438 0
1.05092 0.0477566 0
1.18628 0.0703481 0
1.23362 0.077035 0
1.24275 0.0722201 0
1.2394 0.0614929 0
1.23401 0.0484416 0
1.22995 0.0347435 0
1.22803 0.0210157 0
1.22843 0.00744462 0
1.23122 -0.00591019 0
1.23655 -0.0189923 0
1.24443 -0.0316695 0
1.25395 -0.0435879 0
1.26056 -0.0538141 0
1.24938 -0.0601683 0
1.18496 -0.0587226 0
1.01061 -0.0455573 0
0.68605 -0.0232571 0
0.243449 -0.00505164 0
-0.267466 0.0108512 0
0.267428 9.67796e-05 0
0.728521 0.0108673 0
1.02912 0.0358415 0
1.17984 0.0559278 0
1.23828 0.0637055 0
1.25312 0.0613774 0
1.25201 0.0532776 0
1.24725 0.0426046 0
1.24321 0.0310404 0
1.24115 0.0193011 0
1.24134 0.00766442 0
1.24387 -0.00373514 0
1.2488 -0.0147705 0
1.25595 -0.0252316 0
1.26384 -0.0346762 0
1.26671 -0.0421205 0
1.248 -0.0455893 0
1.17227 -0.0421351 0
0.98909 -0.0299831 0
0.668488 -0.0133364 0
0.238587 -0.00221727 0
-0.257102 0.00727706 0
0.257049 6.49119e-05 0
0.704421 0.00729893 0
1.00974 0.0259708 0
1.17234 0.042946 0
1.24055 0.0509782 0
1.26095 0.0505964 0
1.26233 0.0448967 0
1.25843 0.0365469 0
1.25456 0.0271189 0
1.2524 0.0173717 0
1.25236 0.00765482 0
1.25454 -0.00183053 0
1.25892 -0.0108954 0
1.26508 -0.0192683 0
1.27104 -0.0264567 0
1.27007 -0.0315071 0
1.24468 -0.0327712 0
1.16055 -0.0282898 0
0.973033 -0.0178996 0
0.657768 -0.00626333 0
0.236462 -0.000308159 0
-0.25016 0.00452099 0
0.250085 4.03586e-05 0
0.686407 0.00454636 0
0.993361 0.0177225 0
1.1646 0.0313426 0
1.24093 0.0390234 0
1.26647 0.0401091 0
1.2704 0.0365525 0
1.26754 0.0304159 0
1.26399 0.0230719 0
1.26179 0.0152708 0
1.26153 0.00741162 0
1.2633 -0.000247512 0
1.26702 -0.00746541 0
1.27204 -0.0139269 0
1.27593 -0.019126 0
1.27131 -0.0222056 0
1.24037 -0.0219089 0
1.15053 -0.0171654 0
0.961814 -0.00887871 0
0.652034 -0.00141788 0
0.23618 0.000910107 0
-0.245855 0.00238438 0
0.245756 2.13289e-05 0
0.6737 0.00240969 0
0.980225 0.01097 0
1.1572 0.0212743 0
1.23989 0.0281738 0
1.26991 0.0302746 0
1.27634 0.0285447 0
1.27465 0.0244278 0
1.27153 0.0190391 0
1.2694 0.0130748 0
1.26894 0.00695844 0
1.27029 0.000990571 0
1.27327 -0.00454844 0
1.27707 -0.0093195 0
1.27892 -0.0128368 0
1.27104 -0.0143858 0
1.2358 -0.0131111 0
1.14255 -0.00866054 0
0.954626 -0.00251629 0
0.649803 0.00166533 0
0.237075 0.00159774 0
-0.243596 0.00080474 0
0.243473 7.25515e-06 0
0.66545 0.000826561 0
0.970291 0.00572115 0
1.15055 0.0129851 0
1.23788 0.0188253 0
1.2716 0.0215061 0
1.28033 0.0212202 0
1.27987 0.0188371 0
1.27731 0.0151899 0
1.27532 0.0108846 0
1.27471 0.0063421 0
1.27565 0.00188633 0
1.27789 -0.00218051 0
1.28048 -0.00551657 0
1.28043 -0.00768413 0
1.26982 -0.00813356 0
1.23152 -0.00637402 0
1.13663 -0.00256808 0
0.950605 0.00161368 0
0.649884 0.00338718 0
0.238634 0.0018896 0
-0.242849 -0.000256919 0
0.242705 -2.21257e-06 0
0.660739 -0.000240752 0
0.963293 0.00195516 0
1.14493 0.00663525 0
1.23531 0.0112856 0
1.27189 0.0141517 0
1.28265 0.0148875 0
1.2834 0.0138809 0
1.28148 0.0116894 0
1.27971 0.008806 0
1.27903 0.0056228 0
1.27959 0.00246488 0
1.28112 -0.000363545 0
1.28259 -0.00253824 0
1.28088 -0.00368856 0
1.26814 -0.00342944 0
1.22786 -0.00156504 0
1.13261 0.0014297 0
0.948908 0.00396693 0
0.651346 0.00411293 0
0.240474 0.00190654 0
-0.243118 -0.000868056 0
0.242958 -7.67256e-06 0
0.658635 -0.000858082 0
0.958789 -0.000463264 0
1.14045 0.00219303 0
1.23255 0.00566307 0
1.27119 0.00839665 0
1.28363 0.00974189 0
1.28553 0.00972602 0
1.28427 0.00866478 0
1.2828 0.00692964 0
1.28209 0.00486261 0
1.28233 0.0027685 0
1.28324 0.000934217 0
1.28372 -0.00035043 0
1.28065 -0.000790675 0
1.26635 -0.00014728 0
1.22498 0.00156509 0
1.13018 0.00373176 0
0.948783 0.00500343 0
0.653491 0.00416724 0
0.24233 0.00175275 0
-0.243972 -0.00112814 0
0.243802 -1.00068e-05 0
0.658269 -0.00112359 0
0.95624 -0.00178027 0
1.13711 -0.000572734 0
1.22993 0.00184003 0
1.26991 0.00422803 0
1.28366 0.0058299 0
1.28657 0.00644023 0
1.28596 0.00618399 0
1.28481 0.00531613 0
1.28413 0.00411564 0
1.28412 0.00285 0
1.28449 0.00177317 0
1.28416 0.00112949 0
1.28004 0.00113853 0
1.26471 0.0019236 0
1.22291 0.00334217 0
1.12896 0.00476712 0
0.949605 0.00514816 0
0.655837 0.00381979 0
0.244038 0.00151108 0
-0.245074 -0.00114869 0
0.2449 -1.02054e-05 0
0.658918 -0.0011481 0
0.955089 -0.00229659 0
1.1348 -0.00202364 0
1.22764 -0.00047442 0
1.26838 0.00146437 0
1.28309 0.00306164 0
1.28683 0.00399367 0
1.28681 0.00425191 0
1.28598 0.00399074 0
1.28536 0.00342206 0
1.28517 0.00276572 0
1.28513 0.00223304 0
1.28416 0.00201828 0
1.27929 0.00227381 0
1.26336 0.00304039 0
1.22155 0.00411633 0
1.12861 0.00494112 0
0.950902 0.00475759 0
0.658081 0.00327566 0
0.245511 0.00124113 0
-0.246195 -0.00103111 0
0.24602 -9.16996e-06 0
0.660041 -0.00103292 0
0.95484 -0.00230313 0
1.13332 -0.00255732 0
1.22578 -0.00165435 0
1.26685 -0.000176829 0
1.2822 0.00125383 0
1.28659 0.00228292 0
1.28708 0.00282198 0
1.28655 0.00294685 0
1.28601 0.00280627 0
1.2857 0.00256942 0
1.28535 0.00240158 0
1.28393 0.00244821 0
1.27857 0.00280667 0
1.26233 0.0034659 0
1.22076 0.0042144 0
1.1288 0.00459562 0
0.952347 0.00410232 0
0.660059 0.00267573 0
0.246723 0.000980948 0
-0.247202 -0.000853216 0
0.24703 -7.59336e-06 0
0.661282 -0.000856133 0
0.955099 -0.00203692 0
1.13246 -0.00253022 0
1.22437 -0.0020708 0
1.26548 -0.00100549 0
1.28122 0.000182924 0
1.28609 0.00116489 0
1.28697 0.00181534 0
1.28669 0.00215488 0
1.28625 0.00227855 0
1.28587 0.00230779 0
1.28532 0.00236394 0
1.28359 0.0025492 0
1.27795 0.00291937 0
1.26162 0.00343618 0
1.22041 0.00390814 0
1.12929 0.00398993 0
0.953737 0.00336706 0
0.661709 0.00210549 0
0.247684 0.000751161 0
-0.248039 -0.000665957 0
0.247869 -5.93011e-06 0
0.662435 -0.000669093 0
0.955589 -0.00166461 0
1.13203 -0.00221627 0
1.22335 -0.0020347 0
1.26435 -0.00130286 0
1.28028 -0.0003697 0
1.28547 0.000488643 0
1.28666 0.00114072 0
1.28659 0.00157286 0
1.28624 0.00183838 0
1.28583 0.00201797 0
1.28515 0.00219479 0
1.28325 0.00243564 0
1.27746 0.00276734 0
1.26118 0.00314167 0
1.22034 0.00340115 0
1.12991 0.00330082 0
0.954968 0.00266317 0
0.663029 0.00160827 0
0.248422 0.00055992 0
-0.248696 -0.000497187 0
0.248529 -4.42926e-06 0
0.66341 -0.00050004 0
0.956134 -0.00128719 0
1.13187 -0.00179904 0
1.22266 -0.0017738 0
1.26346 -0.0012914 0
1.27947 -0.000589206 0
1.28486 0.000117936 0
1.28625 0.000710081 0
1.28634 0.00115568 0
1.28608 0.00147842 0
1.28567 0.001727 0
1.28493 0.001954 0
1.28294 0.00219926 0
1.27711 0.00247102 0
1.26094 0.00272174 0
1.22045 0.00283096 0
1.13053 0.00263504 0
0.955999 0.00204691 0
0.664054 0.00119897 0
0.248975 0.000407523 0
-0.24919 -0.000358275 0
0.249026 -3.19292e-06 0
0.664182 -0.000360631 0
0.956641 -0.000955343 0
1.13186 -0.00138504 0
1.2222 -0.00143537 0
1.26279 -0.00112789 0
1.2788 -0.000615771 0
1.2843 -5.70142e-05 0
1.28583 0.000448088 0
1.28605 0.000861568 0
1.28585 0.00118794 0
1.28547 0.00145267 0
1.28471 0.00168559 0
1.28269 0.00190743 0
1.27688 0.00211566 0
1.26085 0.0022689 0
1.22065 0.00228029 0
1.13111 0.00204715 0
0.95683 0.00153783 0
0.66483 0.000875587 0
0.24938 0.000290038 0
-0.249551 -0.000250618 0
0.249389 -2.23421e-06 0
0.664769 -0.000252444 0
0.957068 -0.000686889 0
1.13192 -0.00102528 0
1.22192 -0.00110254 0
1.26231 -0.000911214 0
1.27827 -0.000545569 0
1.28382 -0.00011685 0
1.28545 0.000295987 0
1.28574 0.000655551 0
1.28561 0.000955306 0
1.28525 0.00120513 0
1.2845 0.00141913 0
1.2825 0.00160541 0
1.27674 0.00175612 0
1.26085 0.00183798 0
1.22089 0.00179159 0
1.13162 0.00155704 0
0.957481 0.00113399 0
0.665407 0.000627745 0
0.249672 0.000201795 0
-0.249809 -0.000170647 0
0.249648 -1.52174e-06 0
0.6652 -0.000172002 0
0.957407 -0.000481283 0
1.132 -0.000736064 0
1.22175 -0.000814184 0
1.26197 -0.000696479 0
1.27787 -0.000438534 0
1.28343 -0.000116082 0
1.28511 0.000211334 0
1.28546 0.000510506 0
1.28538 0.000769564 0
1.28506 0.000988829 0
1.28434 0.00117234 0
1.28237 0.00132057 0
1.27668 0.00142376 0
1.26091 0.00145666 0
1.22113 0.00138069 0
1.13204 0.00116429 0
0.957982 0.000822913 0
0.66583 0.000442138 0
0.249878 0.000136897 0
-0.249989 -0.000113039 0
0.24983 -1.00833e-06 0
0.66551 -0.000114014 0
0.957664 -0.000329669 0
1.13209 -0.000515148 0
1.22164 -0.000582306 0
1.26173 -0.000509506 0
1.27757 -0.000328187 0
1.28313 -8.86651e-05 0
1.28483 0.000165509 0
1.28523 0.000406654 0
1.28518 0.000621223 0
1.28489 0.000804335 0
1.2842 0.00095418 0
1.28228 0.00106712 0
1.27666 0.00113346 0
1.26099 0.00113492 0
1.22135 0.00104779 0
1.13238 0.000858322 0
0.95836 0.000588434 0
0.666136 0.000305622 0
0.250022 9.00079e-05 0
-0.250114 -7.24717e-05 0
0.249955 -6.46709e-07 0
0.665729 -7.31606e-05 0
0.957854 -0.000220844 0
1.13217 -0.000352279 0
1.22159 -0.00040482 0
1.26157 -0.000358598 0
1.27735 -0.000230665 0
1.28289 -5.39145e-05 0
1.28461 0.000140443 0
1.28503 0.000330278 0
1.28501 0.00050247 0
1.28476 0.000649836 0
1.28411 0.000767626 0
1.28223 0.000850402 0
1.27667 0.000889544 0
1.26109 0.00087231 0
1.22154 0.000785148 0
1.13265 0.000624839 0
0.958644 0.000414589 0
0.666355 0.000206675 0
0.250119 5.66607e-05 0
-0.250199 -4.43942e-05 0
0.250041 -3.96373e-07 0
0.665882 -4.48763e-05 0
0.957992 -0.00014425 0
1.13223 -0.000235228 0
1.22155 -0.000273627 0
1.26145 -0.000242851 0
1.27719 -0.000151721 0
1.28272 -2.15783e-05 0
1.28444 0.000125482 0
1.28487 0.000272256 0
1.28488 0.000407087 0
1.28466 0.000522266 0
1.28404 0.000611957 0
1.2822 0.000670328 0
1.27669 0.000690214 0
1.26118 0.000663065 0
1.22171 0.000581944 0
1.13286 0.000449427 0
0.958855 0.000287369 0
0.66651 0.000135857 0
0.250185 3.33017e-05 0
-0.250257 -2.52286e-05 0
0.2501 -2.25469e-07 0
0.665989 -2.55658e-05 0
0.95809 -9.11344e-05 0
1.13227 -0.000152695 0
1.22153 -0.000179155 0
1.26138 -0.000157343 0
1.27707 -9.15567e-05 0
1.28259 4.35399e-06 0
1.28431 0.000114823 0
1.28475 0.000226719 0
1.28478 0.00033022 0
1.28458 0.000418072 0
1.28399 0.000484436 0
1.28219 0.000523856 0
1.27673 0.000530653 0
1.26127 0.000499317 0
1.22184 0.000427041 0
1.13303 0.00031924 0
0.959012 0.000195284 0
0.66662 8.57727e-05 0
0.250227 1.71995e-05 0
-0.250296 -1.2305e-05 0
0.250139 -1.1021e-07 0
0.666062 -1.25427e-05 0
0.95816 -5.47381e-05 0
1.13231 -9.53733e-05 0
1.22152 -0.000112527 0
1.26132 -9.60401e-05 0
1.27699 -4.78271e-05 0
1.28249 2.30534e-05 0
1.28421 0.000105622 0
1.28466 0.00018997 0
1.2847 0.000268109 0
1.28453 0.000333693 0
1.28396 0.000381442 0
1.28219 0.000406634 0
1.27677 0.000404925 0
1.26135 0.000372941 0
1.22196 0.000310332 0
1.13316 0.000223594 0
0.959128 0.000129302 0
0.666696 5.0789e-05 0
0.250253 6.30562e-06 0
-0.250323 -3.69619e-06 0
0.250166 -3.34213e-08 0
0.666113 -3.86635e-06 0
0.958209 -3.00643e-05 0
1.13234 -5.60765e-05 0
1.22151 -6.63717e-05 0
1.26129 -5.32277e-05 0
1.27693 -1.73587e-05 0
1.28242 3.52205e-05 0
1.28414 9.67195e-05 0
1.2846 0.000159709 0
1.28465 0.000217844 0
1.28449 0.000265832 0
1.28395 0.000299179 0
1.28221 0.000314 0
1.27681 0.000307077 0
1.26142 0.00027649 0
1.22205 0.000223258 0
1.13326 0.000153971 0
0.959213 8.25114e-05 0
0.666748 2.67033e-05 0
0.250269 -8.89134e-07 0
-0.25034 1.959e-06 0
0.250184 1.70294e-08 0
0.666147 1.83436e-06 0
0.958243 -1.35179e-05 0
1.13236 -2.94713e-05 0
1.22151 -3.49363e-05 0
1.26126 -2.40707e-05 0
1.27689 2.98034e-06 0
1.28237 4.214e-05 0
1.28409 8.78275e-05 0
1.28455 0.000134485 0
1.28461 0.00017716 0
1.28447 0.000211575 0
1.28394 0.000234064 0
1.28222 0.000241544 0
1.27685 0.000231698 0
1.26148 0.000203573 0
1.22213 0.000158869 0
1.13334 0.000103762 0
0.959276 4.97238e-05 0
0.666784 1.04236e-05 0
0.250278 -5.48122e-06 0
-0.250352 5.60827e-06 0
0.250196 4.95918e-08 0
0.666171 5.51435e-06 0
0.958268 -2.55716e-06 0
1.13237 -1.16957e-05 0
1.22151 -1.38993e-05 0
1.26124 -4.73372e-06 0
1.27686 1.59032e-05 0
1.28233 4.51804e-05 0
1.28405 7.90515e-05 0
1.28452 0.000113357 0
1.28459 0.000144275 0
1.28445 0.000168432 0
1.28394 0.00018292 0
1.28224 0.000185364 0
1.27689 0.000174145 0
1.26153 0.000148929 0
1.22219 0.00011168 0
1.1334 6.79335e-05 0
0.959323 2.70925e-05 0
0.666809 -3.01191e-07 0
0.250281 -8.25868e-06 0
-0.25036 7.90505e-06 0
0.250204 7.00919e-08 0
0.666188 7.83205e-06 0
0.958285 4.59485e-06 0
1.13238 7.85025e-10 0
1.22151 -9.58232e-08 0
1.26123 7.70402e-06 0
1.27684 2.35957e-05 0
1.28231 4.5562e-05 0
1.28403 7.06291e-05 0
1.2845 9.56756e-05 0
1.28457 0.000117777 0
1.28445 0.000134316 0
1.28395 0.000143039 0
1.28226 0.000142158 0
1.27692 0.000130576 0
1.26158 0.000108342 0
1.22224 7.74436e-05 0
1.13345 4.27025e-05 0
0.959359 1.17928e-05 0
0.666825 -7.09579e-06 0
0.250282 -9.78246e-06 0
-0.250365 9.29665e-06 0
0.250209 8.25186e-08 0
0.6662 9.23815e-06 0
0.958298 9.17043e-06 0
1.13239 7.55533e-06 0
1.22151 8.75085e-06 0
1.26123 1.54044e-05 0
1.27683 2.77368e-05 0
1.28229 4.42741e-05 0
1.28401 6.28e-05 0
1.28449 8.09625e-05 0
1.28457 9.65345e-05 0
1.28445 0.00010751 0
1.28396 0.000112174 0
1.28228 0.000109207 0
1.27695 9.78932e-05 0
1.26162 7.85037e-05 0
1.22228 5.29156e-05 0
1.13349 2.52532e-05 0
0.959385 1.76669e-06 0
0.666836 -1.11244e-05 0
0.250281 -1.04482e-05 0
-0.250369 1.00874e-05 0
0.250212 8.95859e-08 0
0.666208 1.00392e-05 0
0.958308 1.2019e-05 0
1.1324 1.23204e-05 0
1.22151 1.42565e-05 0
1.26122 1.99333e-05 0
1.27682 2.95714e-05 0
1.28228 4.20696e-05 0
1.284 5.57525e-05 0
1.28448 6.88378e-05 0
1.28456 7.96336e-05 0
1.28445 8.66172e-05 0
1.28397 8.84989e-05 0
1.2823 8.43229e-05 0
1.27698 7.36455e-05 0
1.26165 5.68527e-05 0
1.22232 3.56454e-05 0
1.13352 1.35061e-05 0
0.959406 -4.47567e-06 0
0.666844 -1.3215e-05 0
0.250279 -1.05323e-05 0
-0.250371 1.04832e-05 0
0.250214 9.31295e-08 0
0.666214 1.04427e-05 0
0.958316 1.37224e-05 0
1.1324 1.52329e-05 0
1.22152 1.75546e-05 0
1.26122 2.24046e-05 0
1.27682 2.99969e-05 0
1.28228 3.9493e-05 0
1.284 4.96088e-05 0
1.28448 5.89841e-05 0
1.28456 6.63337e-05 0
1.28446 7.05079e-05 0
1.28398 7.05473e-05 0
1.28232 6.57697e-05 0
1.277 5.59203e-05 0
1.26168 4.14302e-05 0
1.22235 2.3798e-05 0
1.13354 5.9372e-06 0
0.959422 -8.00461e-06 0
0.666849 -1.39511e-05 0
0.250277 -1.02253e-05 0
-0.250372 1.06223e-05 0
0.250216 9.43825e-08 0
0.666218 1.05876e-05 0
0.958322 1.4677e-05 0
1.13241 1.69371e-05 0
1.22152 1.94314e-05 0
1.26122 2.35974e-05 0
1.27682 2.96431e-05 0
1.28228 3.69201e-05 0
1.284 4.44308e-05 0
1.28448 5.11281e-05 0
1.28457 5.60329e-05 0
1.28447 5.82793e-05 0
1.284 5.71581e-05 0
1.28233 5.21889e-05 0
1.27702 4.32433e-05 0
1.2617 3.07531e-05 0
1.22237 1.60118e-05 0
1.13356 1.43832e-06 0
0.959436 -9.58266e-06 0
0.666853 -1.37396e-05 0
0.250275 -9.65676e-06 0
-0.250373 1.05967e-05 0
0.250217 9.41661e-08 0
0.666222 1.05668e-05 0
0.958327 1.51503e-05 0
1.13241 1.78716e-05 0
1.22152 2.04258e-05 0
1.26122 2.40473e-05 0
1.27682 2.89406e-05 0
1.28228 3.45978e-05 0
1.284 4.02327e-05 0
1.28448 4.50312e-05 0
1.28457 4.82426e-05 0
1.28448 4.92134e-05 0
1.28401 4.74206e-05 0
1.28235 4.25288e-05 0
1.27704 3.44901e-05 0
1.26172 2.37098e-05 0
1.22239 1.12853e-05 0
1.13358 -7.88728e-07 0
0.959447 -9.74673e-06 0
0.666856 -1.286e-05 0
0.250273 -8.91277e-06 0
-0.250373 1.0467e-05 0
0.250217 9.30204e-08 0
0.666224 1.04412e-05 0
0.958331 1.53209e-05 0
1.13242 1.83316e-05 0
1.22153 2.09019e-05 0
1.26122 2.41153e-05 0
1.27682 2.81748e-05 0
1.28228 3.26776e-05 0
1.284 3.69951e-05 0
1.28448 4.04855e-05 0
1.28458 4.25676e-05 0
1.28448 4.27443e-05 0
1.28402 4.06278e-05 0
1.28236 3.59843e-05 0
1.27706 2.88128e-05 0
1.26174 1.94764e-05 0
1.22241 8.89103e-06 0
1.1336 -1.31091e-06 0
0.959457 -8.86826e-06 0
0.66686 -1.14991e-05 0
0.250271 -8.04825e-06 0
-0.250373 1.02722e-05 0
0.250217 9.12941e-08 0
0.666226 1.025e-05 0
0.958335 1.53061e-05 0
1.13242 1.85128e-05 0
1.22153 2.11007e-05 0
1.26123 2.40388e-05 0
1.27682 2.75278e-05 0
1.28228 3.12442e-05 0
1.284 3.46771e-05 0
1.28449 3.73118e-05 0
1.28459 3.86908e-05 0
1.28449 3.84301e-05 0
1.28403 3.62377e-05 0
1.28238 3.19475e-05 0
1.27707 2.55814e-05 0
1.26176 1.74517e-05 0
1.22243 8.30938e-06 0
1.13361 -5.22501e-07 0
0.959466 -7.1969e-06 0
0.666863 -9.77678e-06 0
0.25027 -7.09598e-06 0
-0.250373 1.00368e-05 0
0.250217 8.9205e-08 0
0.666228 1.00179e-05 0
0.958339 1.51811e-05 0
1.13243 1.85407e-05 0
1.22153 2.11772e-05 0
1.26123 2.39675e-05 0
1.27682 2.71086e-05 0
1.28228 3.03362e-05 0
1.28401 3.32265e-05 0
1.28449 3.53578e-05 0
1.28459 3.63608e-05 0
1.2845 3.59311e-05 0
1.28404 3.38412e-05 0
1.28239 2.99676e-05 0
1.27709 2.43373e-05 0
1.26177 1.72073e-05 0
1.22244 9.17967e-06 0
1.13362 1.31226e-06 0
0.959475 -4.8917e-06 0
0.666867 -7.76365e-06 0
0.25027 -6.07267e-06 0
-0.250373 9.77501e-06 0
0.250216 8.68801e-08 0
0.666229 9.75916e-06 0
0.958342 1.4991e-05 0
1.13243 1.84924e-05 0