# vtk DataFile Version 3.0
vtk output
ASCII
DATASET UNSTRUCTURED_GRID
POINTS 1913 double
0.045977 0 0
0.045977 0.0952381 0
0.045977 0.142857 0
0.045977 0.190476 0
0.045977 0.238095 0
0.045977 0.285714 0
0.045977 0.333333 0
0.045977 0.380952 0
0.045977 0.428571 0
0.045977 0.47619 0
0.045977 0.52381 0
0.045977 0.571429 0
0.045977 0.619048 0
0.045977 0.666667 0
0.045977 0.714286 0
0.045977 0.761905 0
0.045977 0.809524 0
0.045977 0.857143 0
0.045977 0.904762 0
0.045977 0.952381 0
0.045977 1 0
0.091954 0 0
0.091954 0.047619 0
0.091954 0.0952381 0
0.091954 0.142857 0
0.091954 0.190476 0
0.091954 0.238095 0
0.091954 0.285714 0
0.091954 0.333333 0
0.091954 0.380952 0
0.091954 0.428571 0
0.091954 0.47619 0
0.091954 0.52381 0
0.091954 0.571429 0
0.091954 0.619048 0
0.091954 0.666667 0
0.091954 0.714286 0
0.091954 0.761905 0
0.091954 0.809524 0
0.091954 0.857143 0
0.091954 0.904762 0
0.091954 0.952381 0
0.091954 1 0
0.137931 0 0
0.137931 0.047619 0
0.137931 0.0952381 0
0.137931 0.142857 0
0.137931 0.190476 0
0.137931 0.238095 0
0.137931 0.285714 0
0.137931 0.333333 0
0.137931 0.380952 0
0.137931 0.428571 0
0.137931 0.47619 0
0.137931 0.52381 0
0.137931 0.571429 0
0.137931 0.619048 0
0.137931 0.666667 0
0.137931 0.714286 0
0.137931 0.761905 0
0.137931 0.809524 0
0.137931 0.857143 0
0.137931 0.904762 0
0.137931 0.952381 0
0.137931 1 0
0.183908 0 0
0.183908 0.047619 0
0.183908 0.0952381 0
0.183908 0.142857 0
0.183908 0.190476 0
0.183908 0.238095 0
0.183908 0.285714 0
0.183908 0.333333 0
0.183908 0.380952 0
0.183908 0.428571 0
0.183908 0.47619 0
0.183908 0.52381 0
0.183908 0.571429 0
0.183908 0.619048 0
0.183908 0.666667 0
0.183908 0.714286 0
0.183908 0.761905 0
0.183908 0.809524 0
0.183908 0.857143 0
0.183908 0.904762 0
0.183908 0.952381 0
0.183908 1 0
0.229885 0 0
0.229885 0.047619 0
0.229885 0.0952381 0
0.229885 0.142857 0
0.229885 0.190476 0
0.229885 0.238095 0
0.229885 0.285714 0
0.229885 0.333333 0
0.229885 0.380952 0
0.229885 0.428571 0
0.229885 0.47619 0
0.229885 0.52381 0
0.229885 0.571429 0
0.229885 0.619048 0
0.229885 0.666667 0
0.229885 0.714286 0
0.229885 0.761905 0
0.229885 0.809524 0
0.229885 0.857143 0
0.229885 0.904762 0
0.229885 0.952381 0
0.229885 1 0
0.275862 0 0
0.275862 0.047619 0
0.275862 0.0952381 0
0.275862 0.142857 0
0.275862 0.190476 0
0.275862 0.238095 0
0.275862 0.285714 0
0.275862 0.333333 0
0.275862 0.380952 0
0.275862 0.428571 0
0.275862 0.47619 0
0.275862 0.52381 0
0.275862 0.571429 0
0.275862 0.619048 0
0.275862 0.666667 0
0.275862 0.714286 0
0.275862 0.761905 0
0.275862 0.809524 0
0.275862 0.857143 0
0.275862 0.904762 0
0.275862 0.952381 0
0.275862 1 0
0.321839 0 0
0.321839 0.047619 0
0.321839 0.0952381 0
0.321839 0.142857 0
0.321839 0.190476 0
0.321839 0.238095 0
0.321839 0.285714 0
0.321839 0.333333 0
0.321839 0.380952 0
0.321839 0.428571 0
0.321839 0.47619 0
0.321839 0.52381 0
0.321839 0.571429 0
0.321839 0.619048 0
0.321839 0.666667 0
0.321839 0.714286 0
0.321839 0.761905 0
0.321839 0.809524 0
0.321839 0.857143 0
0.321839 0.904762 0
0.321839 0.952381 0
0.321839 1 0
0.367816 0 0
0.367816 0.047619 0
0.367816 0.0952381 0
0.367816 0.142857 0
0.367816 0.190476 0
0.367816 0.238095 0
0.367816 0.285714 0
0.367816 0.333333 0
0.367816 0.380952 0
0.367816 0.428571 0
0.367816 0.47619 0
0.367816 0.52381 0
0.367816 0.571429 0
0.367816 0.619048 0
0.367816 0.666667 0
0.367816 0.714286 0
0.367816 0.761905 0
0.367816 0.809524 0
0.367816 0.857143 0
0.367816 0.904762 0
0.367816 0.952381 0
0.367816 1 0
0.413793 0 0
0.413793 0.047619 0
0.413793 0.0952381 0
0.413793 0.142857 0
0.413793 0.190476 0
0.413793 0.238095 0
0.413793 0.285714 0
0.413793 0.333333 0
0.413793 0.380952 0
0.413793 0.428571 0
0.413793 0.47619 0
0.413793 0.52381 0
0.413793 0.571429 0
0.413793 0.619048 0
0.413793 0.666667 0
0.413793 0.714286 0
0.413793 0.761905 0
0.413793 0.809524 0
0.413793 0.857143 0
0.413793 0.904762 0
0.413793 0.952381 0
0.413793 1 0
0.45977 0 0
0.45977 0.047619 0
0.45977 0.0952381 0
0.45977 0.142857 0
0.45977 0.190476 0
0.45977 0.238095 0
0.45977 0.285714 0
0.45977 0.333333 0
0.45977 0.380952 0
0.45977 0.428571 0
0.45977 0.47619 0
0.45977 0.52381 0
0.45977 0.571429 0
0.45977 0.619048 0
0.45977 0.666667 0
0.45977 0.714286 0
0.45977 0.761905 0
0.45977 0.809524 0
0.45977 0.857143 0
0.45977 0.904762 0
0.45977 0.952381 0
0.45977 1 0
0.505747 0 0
0.505747 0.047619 0
0.505747 0.0952381 0
0.505747 0.142857 0
0.505747 0.190476 0
0.505747 0.238095 0
0.505747 0.285714 0
0.505747 0.333333 0
0.505747 0.380952 0
0.505747 0.428571 0
0.505747 0.47619 0
0.505747 0.52381 0
0.505747 0.571429 0
0.505747 0.619048 0
0.505747 0.666667 0
0.505747 0.714286 0
0.505747 0.761905 0
0.505747 0.809524 0
0.505747 0.857143 0
0.505747 0.904762 0
0.505747 0.952381 0
0.505747 1 0
0.551724 0 0
0.551724 0.047619 0
0.551724 0.0952381 0
0.551724 0.142857 0
0.551724 0.190476 0
0.551724 0.238095 0
0.551724 0.285714 0
0.551724 0.333333 0
0.551724 0.380952 0
0.551724 0.428571 0
0.551724 0.47619 0
0.551724 0.52381 0
0.551724 0.571429 0
0.551724 0.619048 0
0.551724 0.666667 0
0.551724 0.714286 0
0.551724 0.761905 0
0.551724 0.809524 0
0.551724 0.857143 0
0.551724 0.904762 0
0.551724 0.952381 0
0.551724 1 0
0.597701 0 0
0.597701 0.047619 0
0.597701 0.0952381 0
0.597701 0.142857 0
0.597701 0.190476 0
0.597701 0.238095 0
0.597701 0.285714 0
0.597701 0.333333 0
0.597701 0.380952 0
0.597701 0.428571 0
0.597701 0.47619 0
0.597701 0.52381 0
0.597701 0.571429 0
0.597701 0.619048 0
0.597701 0.666667 0
0.597701 0.714286 0
0.597701 0.761905 0
0.597701 0.809524 0
0.597701 0.857143 0
0.597701 0.904762 0
0.597701 0.952381 0
0.597701 1 0
0.643678 0 0
0.643678 0.047619 0
0.643678 0.0952381 0
0.643678 0.142857 0
0.643678 0.190476 0
0.643678 0.238095 0
0.643678 0.285714 0
0.643678 0.333333 0
0.643678 0.380952 0
0.643678 0.428571 0
0.643678 0.47619 0
0.643678 0.52381 0
0.643678 0.571429 0
0.643678 0.619048 0
0.643678 0.666667 0
0.643678 0.714286 0
0.643678 0.761905 0
0.643678 0.809524 0
0.643678 0.857143 0
0.643678 0.904762 0
0.643678 0.952381 0
0.643678 1 0
0.689655 0 0
0.689655 0.047619 0
0.689655 0.0952381 0
0.689655 0.142857 0
0.689655 0.190476 0
0.689655 0.238095 0
0.689655 0.285714 0
0.689655 0.333333 0
0.689655 0.380952 0
0.689655 0.428571 0
0.689655 0.47619 0
0.689655 0.52381 0
0.689655 0.571429 0
0.689655 0.619048 0
0.689655 0.666667 0
0.689655 0.714286 0
0.689655 0.761905 0
0.689655 0.809524 0
0.689655 0.857143 0
0.689655 0.904762 0
0.689655 0.952381 0
0.689655 1 0
0.735632 0 0
0.735632 0.047619 0
0.735632 0.0952381 0
0.735632 0.142857 0
0.735632 0.190476 0
0.735632 0.238095 0
0.735632 0.285714 0
0.735632 0.333333 0
0.735632 0.380952 0
0.735632 0.428571 0
0.735632 0.47619 0
0.735632 0.52381 0
0.735632 0.571429 0
0.735632 0.619048 0
0.735632 0.666667 0
0.735632 0.714286 0
0.735632 0.761905 0
0.735632 0.809524 0
0.735632 0.857143 0
0.735632 0.904762 0
0.735632 0.952381 0
0.735632 1 0
0.781609 0 0
0.781609 0.047619 0
0.781609 0.0952381 0
0.781609 0.142857 0
0.781609 0.190476 0
0.781609 0.238095 0
0.781609 0.285714 0
0.781609 0.333333 0
0.781609 0.380952 0
0.781609 0.428571 0
0.781609 0.47619 0
0.781609 0.52381 0
0.781609 0.571429 0
0.781609 0.619048 0
0.781609 0.666667 0
0.781609 0.714286 0
0.781609 0.761905 0
0.781609 0.809524 0
0.781609 0.857143 0
0.781609 0.904762 0
0.781609 0.952381 0
0.781609 1 0
0.827586 0 0
0.827586 0.047619 0
0.827586 0.0952381 0
0.827586 0.142857 0
0.827586 0.190476 0
0.827586 0.238095 0
0.827586 0.285714 0
0.827586 0.333333 0
0.827586 0.380952 0
0.827586 0.428571 0
0.827586 0.47619 0
0.827586 0.52381 0
0.827586 0.571429 0
0.827586 0.619048 0
0.827586 0.666667 0
0.827586 0.714286 0
0.827586 0.761905 0
0.827586 0.809524 0
0.827586 0.857143 0
0.827586 0.904762 0
0.827586 0.952381 0
0.827586 1 0
0.873563 0 0
0.873563 0.047619 0
0.873563 0.0952381 0
0.873563 0.142857 0
0.873563 0.190476 0
0.873563 0.238095 0
0.873563 0.285714 0
0.873563 0.333333 0
0.873563 0.380952 0
0.873563 0.428571 0
0.873563 0.47619 0
0.873563 0.52381 0
0.873563 0.571429 0
0.873563 0.619048 0
0.873563 0.666667 0
0.873563 0.714286 0
0.873563 0.761905 0
0.873563 0.809524 0
0.873563 0.857143 0
0.873563 0.904762 0
0.873563 0.952381 0
0.873563 1 0
0.91954 0 0
0.91954 0.047619 0
0.91954 0.0952381 0
0.91954 0.142857 0
0.91954 0.190476 0
0.91954 0.238095 0
0.91954 0.285714 0
0.91954 0.333333 0
0.91954 0.380952 0
0.91954 0.428571 0
0.91954 0.47619 0
0.91954 0.52381 0
0.91954 0.571429 0
0.91954 0.619048 0
0.91954 0.666667 0
0.91954 0.714286 0
0.91954 0.761905 0
0.91954 0.809524 0
0.91954 0.857143 0
0.91954 0.904762 0
0.91954 0.952381 0
0.91954 1 0
0.965517 0 0
0.965517 0.047619 0
0.965517 0.0952381 0
0.965517 0.142857 0
0.965517 0.190476 0
0.965517 0.238095 0
0.965517 0.285714 0
0.965517 0.333333 0
0.965517 0.380952 0
0.965517 0.428571 0
0.965517 0.47619 0
0.965517 0.52381 0
0.965517 0.571429 0
0.965517 0.619048 0
0.965517 0.666667 0
0.965517 0.714286 0
0.965517 0.761905 0
0.965517 0.809524 0
0.965517 0.857143 0
0.965517 0.904762 0
0.965517 0.952381 0
0.965517 1 0
1.01149 0 0
1.01149 0.047619 0
1.01149 0.0952381 0
1.01149 0.142857 0
1.01149 0.190476 0
1.01149 0.238095 0
1.01149 0.285714 0
1.01149 0.333333 0
1.01149 0.380952 0
1.01149 0.428571 0
1.01149 0.47619 0
1.01149 0.52381 0
1.01149 0.571429 0
1.01149 0.619048 0
1.01149 0.666667 0
1.01149 0.714286 0
1.01149 0.761905 0
1.01149 0.809524 0
1.01149 0.857143 0
1.01149 0.904762 0
1.01149 0.952381 0
1.01149 1 0
1.05747 0 0
1.05747 0.047619 0
1.05747 0.0952381 0
1.05747 0.142857 0
1.05747 0.190476 0
1.05747 0.238095 0
1.05747 0.285714 0
1.05747 0.333333 0
1.05747 0.380952 0
1.05747 0.428571 0
1.05747 0.47619 0
1.05747 0.52381 0
1.05747 0.571429 0
1.05747 0.619048 0
1.05747 0.666667 0
1.05747 0.714286 0
1.05747 0.761905 0
1.05747 0.809524 0
1.05747 0.857143 0
1.05747 0.904762 0
1.05747 0.952381 0
1.05747 1 0
1.10345 0 0
1.10345 0.047619 0
1.10345 0.0952381 0
1.10345 0.142857 0
1.10345 0.190476 0
1.10345 0.238095 0
1.10345 0.285714 0
1.10345 0.333333 0
1.10345 0.380952 0
1.10345 0.428571 0
1.10345 0.47619 0
1.10345 0.52381 0
1.10345 0.571429 0
[...]
POINT_DATA 1913
VECTORS velocity[m/s] double
-0 0.209458 0
0 0.209458 0
0 0.209386 0
0 0.180974 0
0 0.150641 0
0 0.121882 0
0 0.0948606 0
0 0.0692377 0
0 0.0445958 0
0 0.0205204 0
0 -0.00338846 0
0 -0.0275313 0
0 -0.0523363 0
0 -0.0782949 0
0 -0.106009 0
0 -0.136256 0
0 -0.170082 0
0 -0.208909 0
0 -0.254241 0
0 -0.302721 0
0 -0.309878 0
-0.872528 0.185234 0
0.872529 0.00163376 0
1.07483 0.185234 0
1.1022 0.208824 0
1.10405 0.184429 0
1.10253 0.153027 0
1.10085 0.123234 0
1.0995 0.0956572 0
1.09856 0.0697239 0
1.09801 0.0448715 0
1.09785 0.0206267 0
1.09807 -0.00343449 0
1.09871 -0.027725 0
1.09983 -0.0526816 0
1.10152 -0.0788069 0
1.10397 -0.106726 0
1.10742 -0.13728 0
1.11225 -0.171652 0
1.11853 -0.211232 0
1.12157 -0.255053 0
1.08167 -0.286306 0
0.77557 -0.235237 0
-0.69526 0.144679 0
0.69526 0.00129611 0
1.05206 0.144679 0
1.12575 0.189905 0
1.13437 0.178668 0
1.1313 0.151218 0
1.12748 0.122268 0
1.12454 0.0949475 0
1.12255 0.0692262 0
1.12142 0.0445911 0
1.12108 0.0205649 0
1.12153 -0.00326945 0
1.12281 -0.027307 0
1.12505 -0.0519584 0
1.12848 -0.077691 0
1.13347 -0.10508 0
1.14061 -0.134867 0
1.15047 -0.167848 0
1.16084 -0.203674 0
1.15175 -0.235339 0
1.03237 -0.234772 0
0.548445 -0.146332 0
-0.556822 0.105545 0
0.556822 0.000944872 0
1.00839 0.105545 0
1.1366 0.161754 0
1.16087 0.164693 0
1.15925 0.144601 0
1.15386 0.118638 0
1.14938 0.0926507 0
1.14634 0.0677539 0
1.14462 0.0437753 0
1.14409 0.0203404 0
1.14474 -0.00291351 0
1.14661 -0.0263308 0
1.1499 -0.0502634 0
1.15492 -0.0750992 0
1.16223 -0.101285 0
1.17245 -0.129267 0
1.18506 -0.158974 0
1.19142 -0.187558 0
1.1512 -0.203096 0
0.946976 -0.176822 0
0.407159 -0.0836928 0
-0.455828 0.0738515 0
0.455828 0.000660516 0
0.954121 0.0738515 0
1.13376 0.132244 0
1.18027 0.146266 0
1.18432 0.134307 0
1.17895 0.112664 0
1.17342 0.0889179 0
1.16949 0.0654068 0
1.16724 0.0424809 0
1.16654 0.0199661 0
1.16735 -0.00240087 0
1.16972 -0.0248866 0
1.17388 -0.0477598 0
1.18021 -0.0712987 0
1.18924 -0.0957647 0
1.20114 -0.121192 0
1.21266 -0.146483 0
1.20642 -0.166661 0
1.12583 -0.167914 0
0.857058 -0.128083 0
0.326352 -0.0478466 0
-0.385161 0.0504912 0
0.385161 0.00045122 0
0.897743 0.0504912 0
1.12022 0.105567 0
1.19182 0.126714 0
1.20521 0.122012 0
1.20188 0.105085 0
1.19612 0.0841116 0
1.19162 0.0623863 0
1.18898 0.0408136 0
1.18814 0.0194723 0
1.18906 -0.00177165 0
1.1918 -0.0230917 0
1.1966 -0.0446624 0
1.20383 -0.06664 0
1.2138 -0.089079 0
1.22555 -0.111576 0
1.23214 -0.132119 0
1.20763 -0.144467 0
1.08737 -0.135505 0
0.779589 -0.091848 0
0.280156 -0.0286807 0
-0.336847 0.0343597 0
0.336847 0.000306839 0
0.844566 0.0343597 0
1.09981 0.0833357 0
1.19636 0.108167 0
1.22156 0.109179 0
1.22213 0.0967103 0
1.21709 0.0786721 0
1.21245 0.0589415 0
1.20959 0.0389048 0
1.20865 0.0189009 0
1.20964 -0.00106563 0
1.21263 -0.0210717 0
1.21782 -0.0411991 0
1.22549 -0.0614854 0
1.23552 -0.0817839 0
1.24539 -0.101296 0
1.24406 -0.117336 0
1.19897 -0.123252 0
1.04522 -0.10811 0
0.7186 -0.0663108 0
0.252464 -0.0183255 0
-0.303969 0.0237117 0
0.303969 0.000211602 0
0.797279 0.0237117 0
1.07583 0.0656965 0
1.19538 0.0916848 0
1.2336 0.096814 0
1.23954 0.0882116 0
1.23614 0.0730063 0
1.2318 0.0553145 0
1.2289 0.0368859 0
1.22793 0.0182957 0
1.22896 -0.000318416 0
1.23206 -0.0189437 0
1.23741 -0.0375789 0
1.24509 -0.0561552 0
1.25436 -0.0743469 0
1.26088 -0.091032 0
1.24977 -0.103121 0
1.18435 -0.104186 0
1.00487 -0.0859973 0
0.672269 -0.0486245 0
0.234771 -0.0124265 0
-0.281279 0.0168577 0
0.281279 0.000150333 0
0.756742 0.0168577 0
1.05074 0.0521045 0
1.19043 0.077608 0
1.2419 0.0854812 0
1.25422 0.0800546 0
1.25322 0.0674301 0
1.24959 0.0517046 0
1.24685 0.0348691 0
1.2459 0.0176955 0
1.24694 0.000440342 0
1.25006 -0.0168058 0
1.25535 -0.0339723 0
1.26266 -0.0509004 0
1.27047 -0.0671129 0
1.27255 -0.0812468 0
1.2508 -0.0900395 0
1.16679 -0.0876844 0
0.968781 -0.0685808 0
0.63732 -0.0363522 0
0.222773 -0.00883815 0
-0.265148 0.0124645 0
0.265148 0.000111081 0
0.722711 0.0124645 0
1.02612 0.0417906 0
1.18283 0.0658715 0
1.24714 0.075422 0
1.26641 0.0725118 0
1.26841 0.0621546 0
1.26585 0.0482545 0
1.26343 0.0329374 0
1.26256 0.017129 0
1.26359 0.0011872 0
1.26663 -0.0147331 0
1.27169 -0.0305054 0
1.27831 -0.0458971 0
1.28411 -0.0603079 0
1.28104 -0.0722103 0
1.24853 -0.0783485 0
1.14835 -0.0737367 0
0.937664 -0.0550268 0
0.610754 -0.0277369 0
0.214239 -0.00652439 0
-0.253221 0.00960514 0
0.253221 8.55484e-05 0
0.694396 0.00960513 0
1.00286 0.0340043 0
1.17361 0.0562198 0
1.24995 0.0666721 0
1.27641 0.0657083 0
1.28183 0.0572988 0
1.28064 0.0450518 0
1.2787 0.0311434 0
1.27796 0.0166139 0
1.27896 0.00190444 0
1.28186 -0.0127774 0
1.28655 -0.0272614 0
1.29223 -0.0412544 0
1.29561 -0.0540592 0
1.28697 -0.0640507 0
1.24407 -0.0681072 0
1.13028 -0.0621215 0
0.911315 -0.0445267 0
0.590274 -0.0215937 0
0.20794 -0.00496556 0
-0.24403 0.0076869 0
0.24403 6.843e-05 0
0.670839 0.00768689 0
0.981416 0.0281124 0
1.16352 0.0483359 0
1.25088 0.0591542 0
1.28453 0.05967 0
1.29365 0.0529118 0
1.29407 0.0421386 0
1.29272 0.0295139 0
1.29216 0.0161577 0
1.29314 0.00257925 0
1.29584 -0.010971 0
1.30006 -0.0242876 0
1.30459 -0.0370283 0
1.30525 -0.0484215 0
1.29088 -0.0567994 0
1.2383 -0.0592575 0
1.1133 -0.0525371 0
0.889173 -0.036393 0
0.574219 -0.0171408 0
0.203146 -0.00388197 0
-0.236674 0.00635035 0
0.236674 5.65098e-05 0
0.651118 0.00635034 0
0.96189 0.0236208 0
1.15307 0.0419086 0
1.25039 0.0527386 0
1.29106 0.054364 0
1.30406 0.0489957 0
1.30626 0.0395242 0
1.30562 0.0280551 0
1.30527 0.01576 0
1.30622 0.00320288 0
1.3087 -0.00932996 0
1.31236 -0.0216039 0
1.31559 -0.0332355 0
1.31334 -0.0433991 0
1.29326 -0.0504277 0
1.23181 -0.0516815 0
1.09771 -0.0446701 0
0.870585 -0.0300753 0
0.561417 -0.0138627 0
0.199398 -0.00311137 0
-0.230598 0.00538262 0
0.230598 4.78836e-05 0
0.634443 0.00538261 0
0.944233 0.0201598 0
1.14261 0.0366615 0
1.24882 0.0472795 0
1.29624 0.0497267 0
1.3132 0.0455239 0
1.31733 0.0371962 0
1.31749 0.0267602 0
1.31739 0.0154154 0
1.31832 0.00376987 0
1.32055 -0.00785883 0
1.3236 -0.0192105 0
1.3254 -0.029867 0
1.32013 -0.0389651 0
1.29447 -0.0448726 0
1.22504 -0.0452354 0
1.08362 -0.0382293 0
0.854932 -0.0251464 0
0.551037 -0.011415 0
0.196394 -0.00255355 0
-0.225447 0.00465736 0
0.225447 4.14217e-05 0
0.620175 0.00465735 0
0.9283 0.0174594 0
1.13236 0.0323617 0
1.24645 0.0426347 0
1.3003 0.045682 0
1.32124 0.042455 0
1.32741 0.03513 0
1.32845 0.0256139 0
1.32864 0.0151152 0
1.32955 0.00427743 0
1.33151 -0.00655393 0
1.33388 -0.0170948 0
1.33419 -0.0268972 0
1.32583 -0.0350748 0
1.29482 -0.0400548 0
1.21827 -0.0397713 0
1.07099 -0.0329587 0
0.841674 -0.0212797 0
0.542481 -0.00956373 0
0.193929 -0.00214373 0
-0.22099 0.00409778 0
0.220991 3.64378e-05 0
0.607815 0.00409777 0
0.913912 0.0153238 0
1.12244 0.0288188 0
1.24351 0.0386749 0
1.30342 0.0421522 0
1.32831 0.039742 0
1.33659 0.0332954 0
1.33858 0.0245972 0
1.3391 0.0148499 0
1.34001 0.00472485 0
1.34169 -0.00540636 0
1.34335 -0.0152365 0
1.34208 -0.0242918 0
1.33064 -0.0316748 0
1.29454 -0.0358896 0
1.2117 -0.0351484 0
1.05971 -0.0286412 0
0.830362 -0.0182272 0
0.535317 -0.00814705 0
0.191859 -0.00183858 0
-0.217069 0.00365537 0
0.217069 3.24987e-05 0
0.596976 0.00365536 0
0.900882 0.0136112 0
1.11293 0.0258794 0
1.24015 0.0352868 0
1.30574 0.0390644 0
1.33454 0.0373376 0
1.34499 0.0316609 0
1.34799 0.0236901 0
1.34888 0.01461 0
1.34979 0.00511305 0
1.35118 -0.0044042 0
1.35209 -0.0136116 0
1.34921 -0.022013 0
1.33471 -0.0287098 0
1.29383 -0.0322943 0
1.20541 -0.0312386 0
1.04966 -0.0250959 0
0.82063 -0.0158009 0
0.529227 -0.00705075 0
0.190084 -0.00160846 0
-0.213572 0.00329815 0
0.213572 2.93188e-05 0
0.587364 0.00329814 0
0.889037 0.0122184 0
1.10384 0.0234216 0
1.23651 0.0323738 0
1.30741 0.0363526 0
1.34002 0.0351976 0
1.35269 0.0301965 0
1.35676 0.0228737 0
1.35805 0.0143868 0
1.35898 0.0054442 0
1.36007 -0.00353406 0
1.3602 -0.0121949 0
1.35568 -0.0200224 0
1.33817 -0.0261257 0
1.29281 -0.0291914 0
1.19948 -0.0279288 0
1.04068 -0.0221748 0
0.812181 -0.013858 0
0.523972 -0.00619303 0
0.188531 -0.00143263 0
-0.210416 0.00300423 0
0.210416 2.6703e-05 0
0.578751 0.00300422 0
0.878221 0.0110698 0
1.0952 0.0213488 0
1.23267 0.0298547 0
1.30853 0.0339592 0
1.34485 0.0332825 0
1.35976 0.0288749 0
1.36495 0.0221309 0
1.36668 0.0141732 0
1.36765 0.00572133 0
1.36843 -0.00278214 0
1.36776 -0.0109614 0
1.36157 -0.0182837 0
1.34113 -0.0238723 0
1.29159 -0.0265109 0
1.19393 -0.0251213 0
1.03265 -0.0197574 0
0.804781 -0.0122899 0
0.519376 -0.00551446 0
0.187148 -0.0012964 0
-0.207541 0.00275815 0
0.207541 2.45134e-05 0
0.570964 0.00275814 0
0.868296 0.0101096 0
1.08699 0.0195846 0
1.2287 0.0276621 0
1.30918 0.0318349 0
1.3491 0.0315579 0
1.36627 0.0276726 0
1.37264 0.0214469 0
1.37484 0.0139634 0
1.37586 0.00594811 0
1.37633 -0.00213497 0
1.37483 -0.00988767 0
1.36697 -0.0167632 0
1.34368 -0.021904 0
1.29025 -0.0241908 0
1.18875 -0.0227328 0
1.02544 -0.0177464 0
0.798239 -0.0110135 0
0.515303 -0.00497137 0
0.185897 -0.00118921 0
-0.204902 0.00254879 0
0.204902 2.26508e-05 0
0.563866 0.00254877 0
0.859148 0.00929602 0
1.07919 0.0180689 0
1.22467 0.0257405 0
1.30945 0.0299379 0
1.35286 0.0299946 0
1.37228 0.0265696 0
1.37986 0.0208095 0
1.38258 0.0137529 0
1.38366 0.00612858 0
1.38382 -0.00157983 0
1.38147 -0.00895239 0
1.37193 -0.0154308 0
1.34589 -0.0201806 0
1.28884 -0.0221771 0
1.18393 -0.0206931 0
1.01894 -0.0160633 0
0.792406 -0.00996505 0
0.511652 -0.00453135 0
0.184749 -0.00110345 0
-0.202463 0.00236799 0
0.202463 2.10426e-05 0
0.557352 0.00236797 0
0.850678 0.00859789 0
1.07178 0.0167544 0
1.22062 0.0240443 0
1.30939 0.0282333 0
1.35616 0.028568 0
1.37784 0.0255493 0
1.38668 0.0202089 0
1.38994 0.0135389 0
1.39111 0.00626698 0
1.39094 -0.00110496 0
1.38773 -0.0081363 0
1.37652 -0.0142595 0
1.34781 -0.0186667 0
1.28741 -0.0204233 0
1.17946 -0.0189433 0
1.01305 -0.0146452 0
0.787159 -0.00909557 0
0.508342 -0.00417021 0
0.183683 -0.00103353 0
-0.200197 0.00220975 0
0.200198 1.96353e-05 0
0.551337 0.00220973 0
0.842803 0.00799158 0
1.06474 0.0156038 0
1.21658 0.0225363 0
1.30907 0.0266919 0
1.35908 0.0272577 0
1.383 0.0245982 0
1.39312 0.0196375 0
1.39696 0.0133194 0
1.39822 0.00636758 0
1.39772 -0.00069968 0
1.39364 -0.00742243 0
1.38077 -0.0132263 0
1.34951 -0.0173318 0
1.28598 -0.0188894 0
1.17531 -0.0174344 0
1.00769 -0.0134417 0
0.782404 -0.00836714 0
0.505314 -0.00386975 0
0.182686 -0.000975398 0
-0.198083 0.00206958 0
0.198083 1.83888e-05 0
0.545755 0.00206956 0
0.835453 0.00745916 0
1.05805 0.0145877 0
1.21256 0.0211864 0
1.30852 0.0252898 0
1.36165 0.0260469 0
1.38779 0.0237055 0
1.39922 0.0190894 0
1.40368 0.0130934 0
1.40505 0.00643461 0
1.40422 -0.000354411 0
1.39924 -0.00679592 0
1.38474 -0.0123109 0
1.35101 -0.0161495 0
1.28457 -0.0175418 0
1.17146 -0.0161257 0
1.0028 -0.0124123 0
0.778062 -0.0077504 0
0.50252 -0.00361623 0
0.181744 -0.000926055 0
-0.196103 0.00194412 0
0.196103 1.72733e-05 0
0.540551 0.0019441 0
0.828571 0.0069869 0
1.05168 0.0136827 0
1.2086 0.0199698 0
1.30779 0.0240072 0
1.36391 0.024922 0
1.39225 0.0228626 0
1.40501 0.0185602 0
1.4101 0.0128608 0
1.4116 0.00647216 0
1.41044 -6.06455e-05 0
1.40457 -0.00624391 0
1.38844 -0.011496 0
1.35236 -0.0150975 0
1.28321 -0.0163519 0
1.16787 -0.0149838 0
0.998294 -0.0115247 0
0.77407 -0.00722251 0
0.499922 -0.00339923 0
0.18085 -0.000883308 0
-0.194243 0.00183082 0
0.194243 1.6266e-05 0
0.535682 0.0018308 0
0.822106 0.00656421 0
1.04561 0.0128706 0
1.2047 0.0188667 0
1.30691 0.0228277 0
1.36589 0.0238718 0
1.3964 0.0220628 0
1.41051 0.0180469 0
1.41627 0.0126217 0
1.41791 0.00648408 0
1.41641 0.000189127 0
1.40964 -0.00575531 0
1.39192 -0.0107669 0
1.35357 -0.0141567 0
1.28189 -0.0152954 0
1.16453 -0.0139808 0
0.994141 -0.0107527 0
0.770379 -0.00676567 0
0.497493 -0.00321083 0
0.179997 -0.000845544 0
-0.192491 0.00172774 0
0.192491 1.53496e-05 0
0.531112 0.00172772 0
0.816017 0.00618289 0
1.03982 0.0121366 0
1.20088 0.0178607 0
1.3059 0.0217381 0
1.36764 0.0228873 0
1.40028 0.0213009 0
1.41575 0.0175474 0
1.4222 0.0123771 0
1.42399 0.00647403 0
1.42215 0.000401496 0
1.41448 -0.00532059 0
1.39519 -0.010111 0
1.35467 -0.0133108 0
1.28062 -0.0143523 0
1.16142 -0.0130939 0
0.990291 -0.0100756 0
0.766947 -0.00636596 0
0.49521 -0.00304499 0
0.179181 -0.000811575 0
-0.190838 0.00163338 0
0.190838 1.45108e-05 0
0.526811 0.00163335 0
0.810269 0.00583653 0
1.03429 0.0114692 0
1.19714 0.0169386 0
1.30479 0.0207272 0
1.36917 0.0219611 0
1.4039 0.0205729 0
1.42074 0.0170602 0
1.4279 0.0121278 0
1.42985 0.00644535 0
1.42767 0.000582217 0
1.4191 -0.00493162 0
1.39828 -0.00951755 0
1.35568 -0.0125461 0
1.2794 -0.0135054 0
1.1585 -0.0123043 0
0.98671 -0.00947653 0
0.763741 -0.00601246 0
0.493053 -0.00289707 0
0.178398 -0.000780528 0
-0.189275 0.00154656 0
0.189275 1.37391e-05 0
0.522753 0.00154653 0
0.80483 0.00552008 0
1.02901 0.0108589 0
1.19348 0.0160895 0
1.3036 0.019786 0
1.37051 0.0210872 0
1.40729 0.0198756 0
1.4255 0.0165846 0
1.43339 0.011875 0
1.43551 0.00640116 0
1.43299 0.000736303 0
1.42353 -0.00458144 0
1.40121 -0.0089775 0
1.3566 -0.011851 0
1.27824 -0.0127404 0
1.15577 -0.0115964 0
0.983365 -0.00894199 0
0.760733 -0.00569659 0
0.49101 -0.00276353 0
0.177644 -0.00075176 0
-0.187795 0.00146636 0
0.187796 1.30263e-05 0
0.518916 0.00146633 0
0.799676 0.00522951 0
1.02396 0.0102982 0
1.18991 0.0153046 0
1.30235 0.0189069 0
1.37168 0.0202606 0
1.41047 0.0192067 0
1.43005 0.0161202 0
1.43867 0.0116201 0
1.44098 0.00634425 0
1.43813 0.000868098 0
1.42777 -0.00426413 0
1.40398 -0.00848315 0
1.35746 -0.0112157 0
1.27714 -0.0120455 0
1.15321 -0.0109575 0
0.980232 -0.00846109 0
0.757901 -0.00541155 0
0.489068 -0.00264161 0
0.176918 -0.000724799 0
-0.186392 0.00139202 0
0.186393 1.23656e-05 0
0.515283 0.00139199 0
0.794782 0.00496158 0
1.01913 0.00978091 0
1.18643 0.0145763 0
1.30104 0.0180837 0
1.3727 0.0194774 0
1.41345 0.0185644 0
1.4344 0.015667 0
1.44376 0.0113643 0
1.44627 0.00627715 0
1.44308 0.000981361 0
1.43185 -0.00397465 0
1.40662 -0.008028 0
1.35826 -0.0106318 0
1.27609 -0.0114104 0
1.1508 -0.0103769 0
0.977287 -0.00802498 0
0.755227 -0.00515197 0
0.487217 -0.00252921 0
0.176219 -0.000699298 0
-0.18506 0.00132293 0
0.185061 1.17516e-05 0
0.511837 0.00132291 0
0.790129 0.00471366 0
1.0145 0.009302 0
1.18305 0.0138987 0
1.29969 0.0173109 0
1.37358 0.0187342 0
1.41625 0.0179471 0
1.43855 0.0152249 0
1.44868 0.0111088 0
1.45138 0.00620214 0
1.44787 0.00107933 0
1.43576 -0.00370872 0
1.40913 -0.0076065 0
1.35901 -0.0100923 0
1.27509 -0.0108269 0
1.14853 -0.00984584 0
0.974514 -0.00762652 0
0.752695 -0.00491359 0
0.485451 -0.00242467 0
0.175544 -0.000674999 0
-0.183795 0.00125859 0
0.183795 1.11799e-05 0
0.508563 0.00125857 0
0.785699 0.00448358 0
1.01006 0.00885727 0
1.17975 0.0132664 0
1.29832 0.0165842 0
1.37434 0.0180281 0
1.41888 0.0173537 0
1.44252 0.0147942 0
1.45341 0.0108548 0
1.45633 0.0061212 0
1.45249 0.0011648 0
1.43953 -0.00346271 0
1.41153 -0.00721396 0
1.35972 -0.00959122 0
1.27414 -0.0102876 0
1.14639 -0.00935714 0
0.971894 -0.00725986 0
0.750292 -0.00469299 0
0.483761 -0.00232671 0
0.174892 -0.000651711 0
-0.18259 0.00119857 0
0.182591 1.06464e-05 0
0.505449 0.00119854 0
0.781476 0.0042695 0
1.00581 0.0084432 0
1.17655 0.0126753 0
1.29693 0.0158996 0
1.37499 0.0173565 0
1.42135 0.0167833 0
1.44633 0.0143751 0
1.45798 0.0106035 0
1.46112 0.0060361 0
1.45696 0.00124013 0
1.44315 -0.00323353 0
1.41383 -0.00684642 0
1.3604 -0.00912342 0
1.27325 -0.00978663 0
1.14436 -0.00890471 0
0.969416 -0.00692024 0
0.748007 -0.00448742 0
0.482144 -0.00223432 0
0.174263 -0.000629293 0
-0.181444 0.00114248 0
0.181444 1.0148e-05 0
0.502485 0.00114245 0
0.777447 0.0040699 0
1.00172 0.00805681 0
1.17344 0.0121214 0
1.29552 0.0152539 0
1.37555 0.0167175 0
1.42368 0.0162351 0
1.44997 0.0139679 0
1.46239 0.0103557 0
1.46575 0.00594836 0
1.46128 0.00130735 0
1.44664 -0.00301859 0
1.41603 -0.00650048 0
1.36104 -0.00868463 0
1.27239 -0.00931892 0
1.14245 -0.00848353 0
0.967067 -0.00660374 0
0.745832 -0.00429466 0
0.480595 -0.00214669 0
0.173656 -0.000607635 0
-0.180351 0.00109 0
0.180351 9.68171e-06 0
0.499658 0.00108997 0
0.773598 0.00388346 0
0.997795 0.00769553 0
1.17041 0.0116017 0
1.29411 0.014644 0
1.37601 0.016109 0
1.42586 0.0157082 0
1.45346 0.0135726 0
1.46665 0.0101124 0
1.47023 0.00585926 0
1.46546 0.00136818 0
1.45 -0.00281568 0
1.41814 -0.00617329 0
1.36165 -0.00827118 0
1.27159 -0.00888017 0
1.14063 -0.00808938 0
0.964838 -0.00630715 0
0.743758 -0.00411292 0
0.479109 -0.00206318 0
0.173069 -0.000586656 0
-0.179308 0.00104085 0
0.179308 9.24496e-06 0
0.496961 0.00104082 0
0.769917 0.003709 0
0.994024 0.00735714 0
1.16747 0.0111131 0
1.29269 0.0140674 0
1.3764 0.0155293 0
1.42793 0.015202 0
1.4568 0.0131895 0
1.47076 0.00987416 0
1.47456 0.0057699 0
1.4695 0.00142404 0
1.45324 -0.00262297 0
1.42016 -0.00586243 0
1.36224 -0.00787993 0
1.27082 -0.00846673 0
1.13891 -0.00771875 0
0.96272 -0.00602778 0
0.741779 -0.00394072 0
0.477683 -0.00198328 0
0.172503 -0.000566291 0
-0.178312 0.00099476 0
0.178313 8.83543e-06 0
0.494385 0.000994729 0
0.766395 0.00354553 0
0.990398 0.00703969 0
1.16462 0.0106532 0
1.29128 0.0135217 0
1.37672 0.0149768 0
1.42987 0.0147158 0
1.46 0.0128186 0
1.47472 0.00964161 0
1.47876 0.00568118 0
1.4734 0.00147611 0
1.45637 -0.00243892 0
1.42211 -0.00556586 0
1.3628 -0.00750825 0
1.2701 -0.00807555 0
1.13728 -0.00736868 0
0.960705 -0.00576343 0
0.739889 -0.00377686 0
0.476316 -0.00190655 0
0.171956 -0.000546486 0
-0.17736 0.000951497 0
0.177361 8.45102e-06 0
0.491923 0.000951465 0
0.763021 0.00339212 0
0.986909 0.00674142 0
1.16185 0.0102198 0
1.28988 0.0130047 0
1.37697 0.0144499 0
1.4317 0.0142488 0
1.46307 0.0124598 0
1.47854 0.00941515 0
1.48282 0.0055938 0
1.47718 0.00152534 0
1.45939 -0.00226225 0
1.42399 -0.00528183 0
1.36335 -0.00715387 0
1.26942 -0.00770399 0
1.13573 -0.00703665 0
0.958787 -0.00551225 0
0.738084 -0.00362032 0
0.475003 -0.00183266 0
0.171429 -0.000527198 0
-0.17645 0.000910842 0
0.176451 8.0898e-06 0
0.489566 0.00091081 0
0.759788 0.00324796 0
0.983551 0.00646076 0
1.15916 0.00981067 0
1.28848 0.0125145 0
1.37716 0.0139473 0
1.43343 0.0138004 0
1.46601 0.0121131 0
1.48223 0.00919506 0
1.48675 0.00550831 0
1.48084 0.00157249 0
1.4623 -0.00209194 0
1.42579 -0.00500893 0
1.36388 -0.00681488 0
1.26878 -0.00734984 0
1.13426 -0.00672058 0
0.95696 -0.00527267 0
0.736358 -0.00347026 0
0.473742 -0.0017613 0
0.17092 -0.000508388 0
-0.175579 0.000872593 0
0.175579 7.74998e-06 0
0.48731 0.000872562 0
0.756686 0.0031123 0
0.980316 0.00619627 0
1.15655 0.00942406 0
1.2871 0.0120491 0
1.37731 0.0134675 0
1.43506 0.0133697 0
1.46882 0.0117781 0
1.48579 0.00898148 0
1.49055 0.00542508 0
1.48438 0.00161814 0
1.46512 -0.00192715 0
1.42754 -0.00474594 0
1.3644 -0.00648966 0
1.26817 -0.00701121 0
1.13286 -0.00641866 0
0.95522 -0.00504338 0
0.734708 -0.00332597 0
0.472533 -0.00169221 0
0.170429 -0.000490022 0
-0.174744 0.000836564 0
0.174745 7.42987e-06 0
0.485147 0.000836534 0
0.753708 0.00298443 0
0.9772 0.00594665 0
1.15402 0.00905816 0
1.28573 0.0116068 0
1.3774 0.0130091 0
1.4366 0.0129558 0
1.47153 0.0114546 0
1.48923 0.00877442 0
1.49423 0.00534434 0
1.4878 0.00166268 0
1.46784 -0.00176724 0
1.42922 -0.00449187 0
1.3649 -0.00617684 0
1.2676 -0.00668649 0
1.13153 -0.00612939 0
0.953562 -0.00482327 0
0.733131 -0.00318684 0
0.471372 -0.0016252 0
0.169956 -0.000472067 0
-0.173944 0.000802578 0
0.173944 7.12792e-06 0
0.483074 0.000802548 0
0.750849 0.00286373 0
0.974196 0.00571066 0
1.15156 0.00871134 0
1.28437 0.0111859 0
1.37745 0.0125708 0
1.43804 0.0125579 0
1.47411 0.0111421 0
1.49254 0.00857375 0
1.49778 0.00526616 0
1.49111 0.00170637 0
1.47047 -0.00161174 0
1.43085 -0.00424593 0
1.3654 -0.00587527 0
1.26706 -0.00637432 0
1.13027 -0.00585146 0
0.951982 -0.00461139 0
0.731623 -0.00305236 0
0.470259 -0.00156005 0
0.169501 -0.000454492 0
-0.173176 0.000770467 0
0.173177 6.84265e-06 0
0.481084 0.000770439 0
0.7481 0.00274958 0
0.971299 0.00548715 0
1.14917 0.00838202 0
1.28304 0.0107848 0
1.37746 0.012151 0
1.43941 0.0121751 0