# vtk DataFile Version 3.0
vtk output
ASCII
DATASET UNSTRUCTURED_GRID
POINTS 1913 double
0.045977 0.0952381 0
0.045977 0.142857 0
0.045977 0.190476 0
0.045977 0.238095 0
0.045977 0.285714 0
0.045977 0.333333 0
0.045977 0.380952 0
0.045977 0.428571 0
0.045977 0.47619 0
0.045977 0.52381 0
0.045977 0.571429 0
0.045977 0.619048 0
0.045977 0.666667 0
0.045977 0.714286 0
0.045977 0.761905 0
0.045977 0.809524 0
0.045977 0.857143 0
0.045977 0.904762 0
0.045977 0.952381 0
0.045977 1 0
0.091954 0.047619 0
0.091954 0.0952381 0
0.091954 0.142857 0
0.091954 0.190476 0
0.091954 0.238095 0
0.091954 0.285714 0
0.091954 0.333333 0
0.091954 0.380952 0
0.091954 0.428571 0
0.091954 0.47619 0
0.091954 0.52381 0
0.091954 0.571429 0
0.091954 0.619048 0
0.091954 0.666667 0
0.091954 0.714286 0
0.091954 0.761905 0
0.091954 0.809524 0
0.091954 0.857143 0
0.091954 0.904762 0
0.091954 0.952381 0
0.091954 1 0
0.137931 0.047619 0
0.137931 0.0952381 0
0.137931 0.142857 0
0.137931 0.190476 0
0.137931 0.238095 0
0.137931 0.285714 0
0.137931 0.333333 0
0.137931 0.380952 0
0.137931 0.428571 0
0.137931 0.47619 0
0.137931 0.52381 0
0.137931 0.571429 0
0.137931 0.619048 0
0.137931 0.666667 0
0.137931 0.714286 0
0.137931 0.761905 0
0.137931 0.809524 0
0.137931 0.857143 0
0.137931 0.904762 0
0.137931 0.952381 0
0.137931 1 0
0.183908 0.047619 0
0.183908 0.0952381 0
0.183908 0.142857 0
0.183908 0.190476 0
0.183908 0.238095 0
0.183908 0.285714 0
0.183908 0.333333 0
0.183908 0.380952 0
0.183908 0.428571 0
0.183908 0.47619 0
0.183908 0.52381 0
0.183908 0.571429 0
0.183908 0.619048 0
0.183908 0.666667 0
0.183908 0.714286 0
0.183908 0.761905 0
0.183908 0.809524 0
0.183908 0.857143 0
0.183908 0.904762 0
0.183908 0.952381 0
0.183908 1 0
0.229885 0.047619 0
0.229885 0.0952381 0
0.229885 0.142857 0
0.229885 0.190476 0
0.229885 0.238095 0
0.229885 0.285714 0
0.229885 0.333333 0
0.229885 0.380952 0
0.229885 0.428571 0
0.229885 0.47619 0
0.229885 0.52381 0
0.229885 0.571429 0
0.229885 0.619048 0
0.229885 0.666667 0
0.229885 0.714286 0
0.229885 0.761905 0
0.229885 0.809524 0
0.229885 0.857143 0
0.229885 0.904762 0
0.229885 0.952381 0
0.229885 1 0
0.275862 0.047619 0
0.275862 0.0952381 0
0.275862 0.142857 0
0.275862 0.190476 0
0.275862 0.238095 0
0.275862 0.285714 0
0.275862 0.333333 0
0.275862 0.380952 0
0.275862 0.428571 0
0.275862 0.47619 0
0.275862 0.52381 0
0.275862 0.571429 0
0.275862 0.619048 0
0.275862 0.666667 0
0.275862 0.714286 0
0.275862 0.761905 0
0.275862 0.809524 0
0.275862 0.857143 0
0.275862 0.904762 0
0.275862 0.952381 0
0.275862 1 0
0.321839 0.047619 0
0.321839 0.0952381 0
0.321839 0.142857 0
0.321839 0.190476 0
0.321839 0.238095 0
0.321839 0.285714 0
0.321839 0.333333 0
0.321839 0.380952 0
0.321839 0.428571 0
0.321839 0.47619 0
0.321839 0.52381 0
0.321839 0.571429 0
0.321839 0.619048 0
0.321839 0.666667 0
0.321839 0.714286 0
0.321839 0.761905 0
0.321839 0.809524 0
0.321839 0.857143 0
0.321839 0.904762 0
0.321839 0.952381 0
0.321839 1 0
0.367816 0.047619 0
0.367816 0.0952381 0
0.367816 0.142857 0
0.367816 0.190476 0
0.367816 0.238095 0
0.367816 0.285714 0
0.367816 0.333333 0
0.367816 0.380952 0
0.367816 0.428571 0
0.367816 0.47619 0
0.367816 0.52381 0
0.367816 0.571429 0
0.367816 0.619048 0
0.367816 0.666667 0
0.367816 0.714286 0
0.367816 0.761905 0
0.367816 0.809524 0
0.367816 0.857143 0
0.367816 0.904762 0
0.367816 0.952381 0
0.367816 1 0
0.413793 0.047619 0
0.413793 0.0952381 0
0.413793 0.142857 0
0.413793 0.190476 0
0.413793 0.238095 0
0.413793 0.285714 0
0.413793 0.333333 0
0.413793 0.380952 0
0.413793 0.428571 0
0.413793 0.47619 0
0.413793 0.52381 0
0.413793 0.571429 0
0.413793 0.619048 0
0.413793 0.666667 0
0.413793 0.714286 0
0.413793 0.761905 0
0.413793 0.809524 0
0.413793 0.857143 0
0.413793 0.904762 0
0.413793 0.952381 0
0.413793 1 0
0.45977 0.047619 0
0.45977 0.0952381 0
0.45977 0.142857 0
0.45977 0.190476 0
0.45977 0.238095 0
0.45977 0.285714 0
0.45977 0.333333 0
0.45977 0.380952 0
0.45977 0.428571 0
0.45977 0.47619 0
0.45977 0.52381 0
0.45977 0.571429 0
0.45977 0.619048 0
0.45977 0.666667 0
0.45977 0.714286 0
0.45977 0.761905 0
0.45977 0.809524 0
0.45977 0.857143 0
0.45977 0.904762 0
0.45977 0.952381 0
0.45977 1 0
0.505747 0.047619 0
0.505747 0.0952381 0
0.505747 0.142857 0
0.505747 0.190476 0
0.505747 0.238095 0
0.505747 0.285714 0
0.505747 0.333333 0
0.505747 0.380952 0
0.505747 0.428571 0
0.505747 0.47619 0
0.505747 0.52381 0
0.505747 0.571429 0
0.505747 0.619048 0
0.505747 0.666667 0
0.505747 0.714286 0
0.505747 0.761905 0
0.505747 0.809524 0
0.505747 0.857143 0
0.505747 0.904762 0
0.505747 0.952381 0
0.505747 1 0
0.551724 0.047619 0
0.551724 0.0952381 0
0.551724 0.142857 0
0.551724 0.190476 0
0.551724 0.238095 0
0.551724 0.285714 0
0.551724 0.333333 0
0.551724 0.380952 0
0.551724 0.428571 0
0.551724 0.47619 0
0.551724 0.52381 0
0.551724 0.571429 0
0.551724 0.619048 0
0.551724 0.666667 0
0.551724 0.714286 0
0.551724 0.761905 0
0.551724 0.809524 0
0.551724 0.857143 0
0.551724 0.904762 0
0.551724 0.952381 0
0.551724 1 0
0.597701 0.047619 0
0.597701 0.0952381 0
0.597701 0.142857 0
0.597701 0.190476 0
0.597701 0.238095 0
0.597701 0.285714 0
0.597701 0.333333 0
0.597701 0.380952 0
0.597701 0.428571 0
0.597701 0.47619 0
0.597701 0.52381 0
0.597701 0.571429 0
0.597701 0.619048 0
0.597701 0.666667 0
0.597701 0.714286 0
0.597701 0.761905 0
0.597701 0.809524 0
0.597701 0.857143 0
0.597701 0.904762 0
0.597701 0.952381 0
0.597701 1 0
0.643678 0.047619 0
0.643678 0.0952381 0
0.643678 0.142857 0
0.643678 0.190476 0
0.643678 0.238095 0
0.643678 0.285714 0
0.643678 0.333333 0
0.643678 0.380952 0
0.643678 0.428571 0
0.643678 0.47619 0
0.643678 0.52381 0
0.643678 0.571429 0
0.643678 0.619048 0
0.643678 0.666667 0
0.643678 0.714286 0
0.643678 0.761905 0
0.643678 0.809524 0
0.643678 0.857143 0
0.643678 0.904762 0
0.643678 0.952381 0
0.643678 1 0
0.689655 0.047619 0
0.689655 0.0952381 0
0.689655 0.142857 0
0.689655 0.190476 0
0.689655 0.238095 0
0.689655 0.285714 0
0.689655 0.333333 0
0.689655 0.380952 0
0.689655 0.428571 0
0.689655 0.47619 0
0.689655 0.52381 0
0.689655 0.571429 0
0.689655 0.619048 0
0.689655 0.666667 0
0.689655 0.714286 0
0.689655 0.761905 0
0.689655 0.809524 0
0.689655 0.857143 0
0.689655 0.904762 0
0.689655 0.952381 0
0.689655 1 0
0.735632 0.047619 0
0.735632 0.0952381 0
0.735632 0.142857 0
0.735632 0.190476 0
0.735632 0.238095 0
0.735632 0.285714 0
0.735632 0.333333 0
0.735632 0.380952 0
0.735632 0.428571 0
0.735632 0.47619 0
0.735632 0.52381 0
0.735632 0.571429 0
0.735632 0.619048 0
0.735632 0.666667 0
0.735632 0.714286 0
0.735632 0.761905 0
0.735632 0.809524 0
0.735632 0.857143 0
0.735632 0.904762 0
0.735632 0.952381 0
0.735632 1 0
0.781609 0.047619 0
0.781609 0.0952381 0
0.781609 0.142857 0
0.781609 0.190476 0
0.781609 0.238095 0
0.781609 0.285714 0
0.781609 0.333333 0
0.781609 0.380952 0
0.781609 0.428571 0
0.781609 0.47619 0
0.781609 0.52381 0
0.781609 0.571429 0
0.781609 0.619048 0
0.781609 0.666667 0
0.781609 0.714286 0
0.781609 0.761905 0
0.781609 0.809524 0
0.781609 0.857143 0
0.781609 0.904762 0
0.781609 0.952381 0
0.781609 1 0
0.827586 0.047619 0
0.827586 0.0952381 0
0.827586 0.142857 0
0.827586 0.190476 0
0.827586 0.238095 0
0.827586 0.285714 0
0.827586 0.333333 0
0.827586 0.380952 0
0.827586 0.428571 0
0.827586 0.47619 0
0.827586 0.52381 0
0.827586 0.571429 0
0.827586 0.619048 0
0.827586 0.666667 0
0.827586 0.714286 0
0.827586 0.761905 0
0.827586 0.809524 0
0.827586 0.857143 0
0.827586 0.904762 0
0.827586 0.952381 0
0.827586 1 0
0.873563 0.047619 0
0.873563 0.0952381 0
0.873563 0.142857 0
0.873563 0.190476 0
0.873563 0.238095 0
0.873563 0.285714 0
0.873563 0.333333 0
0.873563 0.380952 0
0.873563 0.428571 0
0.873563 0.47619 0
0.873563 0.52381 0
0.873563 0.571429 0
0.873563 0.619048 0
0.873563 0.666667 0
0.873563 0.714286 0
0.873563 0.761905 0
0.873563 0.809524 0
0.873563 0.857143 0
0.873563 0.904762 0
0.873563 0.952381 0
0.873563 1 0
0.91954 0.047619 0
0.91954 0.0952381 0
0.91954 0.142857 0
0.91954 0.190476 0
0.91954 0.238095 0
0.91954 0.285714 0
0.91954 0.333333 0
0.91954 0.380952 0
0.91954 0.428571 0
0.91954 0.47619 0
0.91954 0.52381 0
0.91954 0.571429 0
0.91954 0.619048 0
0.91954 0.666667 0
0.91954 0.714286 0
0.91954 0.761905 0
0.91954 0.809524 0
0.91954 0.857143 0
0.91954 0.904762 0
0.91954 0.952381 0
0.91954 1 0
0.965517 0.047619 0
0.965517 0.0952381 0
0.965517 0.142857 0
0.965517 0.190476 0
0.965517 0.238095 0
0.965517 0.285714 0
0.965517 0.333333 0
0.965517 0.380952 0
0.965517 0.428571 0
0.965517 0.47619 0
0.965517 0.52381 0
0.965517 0.571429 0
0.965517 0.619048 0
0.965517 0.666667 0
0.965517 0.714286 0
0.965517 0.761905 0
0.965517 0.809524 0
0.965517 0.857143 0
0.965517 0.904762 0
0.965517 0.952381 0
0.965517 1 0
1.01149 0.047619 0
1.01149 0.0952381 0
1.01149 0.142857 0
1.01149 0.190476 0
1.01149 0.238095 0
1.01149 0.285714 0
1.01149 0.333333 0
1.01149 0.380952 0
1.01149 0.428571 0
1.01149 0.47619 0
1.01149 0.52381 0
1.01149 0.571429 0
1.01149 0.619048 0
1.01149 0.666667 0
1.01149 0.714286 0
1.01149 0.761905 0
1.01149 0.809524 0
1.01149 0.857143 0
1.01149 0.904762 0
1.01149 0.952381 0
1.01149 1 0
1.05747 0.047619 0
1.05747 0.0952381 0
1.05747 0.142857 0
1.05747 0.190476 0
1.05747 0.238095 0
1.05747 0.285714 0
1.05747 0.333333 0
1.05747 0.380952 0
1.05747 0.428571 0
1.05747 0.47619 0
1.05747 0.52381 0
1.05747 0.571429 0
1.05747 0.619048 0
1.05747 0.666667 0
1.05747 0.714286 0
1.05747 0.761905 0
1.05747 0.809524 0
1.05747 0.857143 0
1.05747 0.904762 0
1.05747 0.952381 0
1.05747 1 0
1.10345 0.047619 0
1.10345 0.0952381 0
1.10345 0.142857 0
1.10345 0.190476 0
1.10345 0.238095 0
1.10345 0.285714 0
1.10345 0.333333 0
1.10345 0.380952 0
1.10345 0.428571 0
1.10345 0.47619 0
1.10345 0.52381 0
1.10345 0.571429 0
1.10345 0.619048 0
1.10345 0.666667 0
1.10345 0.714286 0
1.10345 0.761905 0
1.10345 0.809524 0
1.10345 0.857143 0
1.10345 0.904762 0
1.10345 0.952381 0
1.10345 1 0
1.14943 0.047619 0
1.14943 0.0952381 0
1.14943 0.142857 0
1.14943 0.190476 0
1.14943 0.238095 0
1.14943 0.285714 0
1.14943 0.333333 0
[...]
POINT_DATA 1913
VECTORS velocity[m/s] double
0 -5.46146e-05 0
0 -5.17667e-05 0
0 -4.8933e-05 0
0 -4.61132e-05 0
0 -4.33071e-05 0
0 -4.05146e-05 0
0 -3.77352e-05 0
0 -3.49687e-05 0
0 -3.22149e-05 0
0 -2.94733e-05 0
0 -2.67437e-05 0
0 -2.40255e-05 0
0 -2.13183e-05 0
0 -1.86217e-05 0
0 -1.59353e-05 0
0 -1.32585e-05 0
0 -1.05907e-05 0
0 -7.93155e-06 0
0 -5.2804e-06 0
0 -2.63673e-06 0
0.0705601 0 0
0.070504 -0.000108821 0
0.0704508 -0.000103147 0
0.0704005 -9.75011e-05 0
0.0703531 -9.18831e-05 0
0.0703086 -8.62924e-05 0
0.0702669 -8.07285e-05 0
0.0702281 -7.51908e-05 0
0.0701922 -6.96788e-05 0
0.070159 -6.41919e-05 0
0.0701287 -5.87293e-05 0
0.0701012 -5.32903e-05 0
0.0700765 -4.78742e-05 0
0.0700546 -4.248e-05 0
0.0700355 -3.71069e-05 0
0.0700191 -3.17538e-05 0
0.0700055 -2.64199e-05 0
0.0699946 -2.1104e-05 0
0.0699864 -1.58052e-05 0
0.069981 -1.05223e-05 0
0.0699783 -5.25424e-06 0
0.0702674 0 0
0.0702119 -0.000162352 0
0.0701594 -0.000153888 0
0.0701097 -0.000145466 0
0.0700629 -0.000137086 0
0.0700189 -0.000128746 0
0.0699778 -0.000120445 0
0.0699395 -0.000112184 0
0.0699039 -0.000103961 0
0.0698712 -9.57753e-05 0
0.0698413 -8.76257e-05 0
0.0698141 -7.95112e-05 0
0.0697897 -7.14306e-05 0
0.0697681 -6.33826e-05 0
0.0697492 -5.53659e-05 0
0.069733 -4.73791e-05 0
0.0697195 -3.94207e-05 0
0.0697088 -3.14891e-05 0
0.0697007 -2.35829e-05 0
0.0696954 -1.57004e-05 0
0.0696927 -7.83993e-06 0
0.0698603 0 0
0.0698058 -0.000214948 0
0.0697542 -0.000203745 0
0.0697054 -0.000192597 0
0.0696594 -0.000181503 0
0.0696162 -0.000170462 0
0.0695757 -0.000159474 0
0.0695381 -0.000148537 0
0.0695032 -0.000137651 0
0.069471 -0.000126813 0
0.0694416 -0.000116024 0
0.0694149 -0.00010528 0
0.069391 -9.45818e-05 0
0.0693697 -8.39261e-05 0
0.0693511 -7.33116e-05 0
0.0693352 -6.27365e-05 0
0.069322 -5.21989e-05 0
0.0693114 -4.16966e-05 0
0.0693035 -3.12277e-05 0
0.0692982 -2.079e-05 0
0.0692956 -1.03815e-05 0
0.0693412 0 0
0.069288 -0.000266359 0
0.0692375 -0.000252479 0
0.0691898 -0.000238668 0
0.0691448 -0.000224923 0
0.0691026 -0.000211243 0
0.069063 -0.000197629 0
0.0690262 -0.000184078 0
0.0689921 -0.000170588 0
0.0689607 -0.00015716 0
0.0689319 -0.00014379 0
0.0689058 -0.000130477 0
0.0688824 -0.000117219 0
0.0688616 -0.000104014 0
0.0688434 -9.08596e-05 0
0.0688279 -7.7754e-05 0
0.0688149 -6.46945e-05 0
0.0688046 -5.16786e-05 0
0.0687968 -3.87038e-05 0
0.0687917 -2.57675e-05 0
0.0687891 -1.28671e-05 0
0.0687129 0 0
0.0686612 -0.000316344 0
0.0686121 -0.000299864 0
0.0685657 -0.000283465 0
0.068522 -0.000267144 0
0.0684809 -0.0002509 0
0.0684425 -0.000234733 0
0.0684067 -0.000218641 0
0.0683735 -0.000202621 0
0.0683429 -0.000186673 0
0.068315 -0.000170795 0
0.0682896 -0.000154983 0
0.0682668 -0.000139237 0
0.0682465 -0.000123553 0
0.0682289 -0.000107929 0
0.0682137 -9.23624e-05 0
0.0682011 -7.685e-05 0
0.0681911 -6.13892e-05 0
0.0681835 -4.59768e-05 0
0.0681785 -3.06099e-05 0
0.068176 -1.52853e-05 0
0.0679788 0 0
0.0679288 -0.000364676 0
0.0678813 -0.000345684 0
0.0678364 -0.000326784 0
0.0677942 -0.000307974 0
0.0677544 -0.000289253 0
0.0677173 -0.000270619 0
0.0676826 -0.00025207 0
0.0676505 -0.000233605 0
0.067621 -0.000215222 0
0.0675939 -0.000196918 0
0.0675694 -0.00017869 0
0.0675473 -0.000160537 0
0.0675277 -0.000142456 0
0.0675106 -0.000124443 0
0.067496 -0.000106496 0
0.0674838 -8.8611e-05 0
0.0674741 -7.07849e-05 0
0.0674668 -5.30142e-05 0
0.0674619 -3.52955e-05 0
0.0674595 -1.76253e-05 0
0.0671426 0 0
0.0670945 -0.00041114 0
0.0670489 -0.000389737 0
0.0670057 -0.000368435 0
0.0669651 -0.000347234 0
0.0669269 -0.000326132 0
0.0668911 -0.000305128 0
0.0668578 -0.000284219 0
0.066827 -0.000263403 0
0.0667985 -0.000242679 0
0.0667725 -0.000222043 0
0.0667489 -0.000201494 0
0.0667277 -0.000181027 0
0.0667088 -0.00016064 0
0.0666924 -0.00014033 0
0.0666783 -0.000120094 0
0.0666666 -9.99263e-05 0
0.0666572 -7.98248e-05 0
0.0666502 -5.97854e-05 0
0.0666455 -3.98041e-05 0
0.0666432 -1.98769e-05 0
0.0662086 0 0
0.0661626 -0.00045554 0
0.066119 -0.000431834 0
0.0660778 -0.00040824 0
0.0660389 -0.000384757 0
0.0660024 -0.000361382 0
0.0659683 -0.000338114 0
0.0659364 -0.000314951 0
0.0659069 -0.000291891 0
0.0658797 -0.00026893 0
0.0658549 -0.000246067 0
0.0658323 -0.000223297 0
0.065812 -0.00020062 0
0.065794 -0.000178029 0
0.0657782 -0.000155523 0
0.0657648 -0.000133098 0
0.0657536 -0.000110748 0
0.0657446 -8.84711e-05 0
0.0657379 -6.62621e-05 0
0.0657334 -4.41167e-05 0
0.0657312 -2.20308e-05 0
0.0651814 0 0
0.0651378 -0.000497694 0
0.0650964 -0.000471806 0
0.0650572 -0.000446039 0
0.0650203 -0.000420391 0
0.0649856 -0.00039486 0
0.0649532 -0.000369445 0
0.064923 -0.000344142 0
0.0648949 -0.000318951 0
0.0648691 -0.000293868 0
0.0648455 -0.00026889 0
0.064824 -0.000244014 0
0.0648047 -0.000219236 0
0.0647876 -0.000194553 0
0.0647727 -0.000169961 0
0.0647599 -0.000145456 0
0.0647492 -0.000121034 0
0.0647407 -9.66891e-05 0
0.0647343 -7.24181e-05 0
0.0647301 -4.82161e-05 0
0.064728 -2.40783e-05 0
0.0640661 0 0
0.0640249 -0.00053744 0
0.0639859 -0.000509498 0
0.063949 -0.000481684 0
0.0639142 -0.000453998 0
0.0638815 -0.000426436 0
0.0638509 -0.000398998 0
0.0638223 -0.000371681 0
0.0637959 -0.000344482 0
0.0637715 -0.000317398 0
0.0637492 -0.000290426 0
0.063729 -0.000263563 0
0.0637108 -0.000236805 0
0.0636946 -0.000210148 0
0.0636805 -0.000183589 0
0.0636684 -0.000157122 0
0.0636584 -0.000130743 0
0.0636503 -0.000104447 0
0.0636443 -7.82302e-05 0
0.0636403 -5.20866e-05 0
0.0636383 -2.60116e-05 0
0.062868 0 0
0.0628294 -0.000574634 0
0.0627929 -0.000544773 0
0.0627584 -0.000515048 0
0.0627258 -0.000485457 0
0.0626952 -0.000455998 0
0.0626665 -0.000426669 0
0.0626398 -0.000397467 0
0.062615 -0.00036839 0
0.0625922 -0.000339434 0
0.0625713 -0.000310597 0
0.0625523 -0.000281875 0
0.0625353 -0.000253264 0
0.0625202 -0.000224759 0
0.0625069 -0.000196357 0
0.0624956 -0.000168053 0
0.0624862 -0.000139841 0
0.0624787 -0.000111718 0
0.062473 -8.36774e-05 0
0.0624693 -5.57144e-05 0
0.0624674 -2.78237e-05 0
0.0615927 0 0
0.0615569 -0.000609152 0
0.061523 -0.000577515 0
0.0614909 -0.00054602 0
0.0614607 -0.000514664 0
0.0614323 -0.000483447 0
0.0614056 -0.000452365 0
0.0613808 -0.000421416 0
0.0613578 -0.000390597 0
0.0613366 -0.000359905 0
0.0613172 -0.000329337 0
0.0612996 -0.000298889 0
0.0612838 -0.000268557 0
0.0612697 -0.000238337 0
0.0612574 -0.000208224 0
0.0612469 -0.000178213 0
0.0612381 -0.000148299 0
0.0612311 -0.000118477 0
0.0612259 -8.87418e-05 0
0.0612224 -5.90876e-05 0
0.0612206 -2.95088e-05 0
0.0602461 0 0
0.0602132 -0.000640892 0
0.060182 -0.000607626 0
0.0601525 -0.000574507 0
0.0601247 -0.000541532 0
0.0600986 -0.0005087 0
0.0600741 -0.000476009 0
0.0600512 -0.000443455 0
0.0600301 -0.000411036 0
0.0600106 -0.000378749 0
0.0599927 -0.00034659 0
0.0599765 -0.000314555 0
0.0599619 -0.000282641 0
0.0599489 -0.000250842 0
0.0599376 -0.000219154 0
0.0599279 -0.000187572 0
0.0599198 -0.000156091 0
0.0599134 -0.000124705 0
0.0599086 -9.34083e-05 0
0.0599053 -6.21959e-05 0
0.0599037 -3.10618e-05 0
0.0588343 0 0
0.0588044 -0.000669769 0
0.0587761 -0.000635026 0
0.0587492 -0.000600434 0
0.0587239 -0.00056599 0
0.0587001 -0.000531692 0
0.0586778 -0.000497539 0
0.058657 -0.000463527 0
0.0586377 -0.000429654 0
0.0586199 -0.000395916 0
0.0586036 -0.00036231 0
0.0585888 -0.000328831 0
0.0585755 -0.000295476 0
0.0585637 -0.00026224 0
0.0585534 -0.000229118 0
0.0585446 -0.000196105 0
0.0585372 -0.000163196 0
0.0585313 -0.000130384 0
0.0585269 -9.76647e-05 0
0.058524 -6.50314e-05 0
0.0585225 -3.24785e-05 0
0.0573636 0 0
0.0573367 -0.000695723 0
0.0573112 -0.000659657 0
0.0572871 -0.000623746 0
0.0572643 -0.000587985 0
0.0572429 -0.000552374 0
0.0572228 -0.000516909 0
0.0572041 -0.000481589 0
0.0571868 -0.00044641 0
0.0571707 -0.000411369 0
0.0571561 -0.000376463 0
0.0571428 -0.000341687 0
0.0571308 -0.000307037 0
0.0571202 -0.000272508 0
0.0571109 -0.000238096 0
0.0571029 -0.000203795 0
0.0570963 -0.000169599 0
0.057091 -0.000135503 0
0.057087 -0.000101502 0
0.0570843 -6.75878e-05 0
0.057083 -3.3756e-05 0
0.0558403 0 0
0.0558165 -0.00071871 0
0.0557939 -0.00068148 0
0.0557725 -0.000644405 0
0.0557523 -0.000607482 0
0.0557333 -0.000570711 0
0.0557155 -0.000534088 0
0.0556989 -0.000497611 0
0.0556835 -0.000461278 0
0.0556693 -0.000425084 0
0.0556563 -0.000389026 0
0.0556445 -0.000353101 0
0.0556338 -0.000317303 0
0.0556244 -0.000281628 0
0.0556161 -0.000246071 0
0.055609 -0.000210627 0
0.0556032 -0.000175289 0
0.0555984 -0.000140053 0
0.0555949 -0.000104913 0
0.0555926 -6.98609e-05 0
0.0555914 -3.48921e-05 0
0.0542707 0 0
0.05425 -0.000738712 0
0.0542304 -0.000700474 0
0.0542117 -0.000662391 0
0.0541941 -0.000624463 0
0.0541776 -0.000586686 0
0.0541621 -0.000549059 0
0.0541476 -0.000511578 0
0.0541342 -0.000474242 0
0.0541218 -0.000437046 0
0.0541105 -0.000399987 0
0.0541001 -0.000363061 0
0.0540909 -0.000326264 0
0.0540826 -0.000289591 0
0.0540754 -0.000253036 0
0.0540692 -0.000216595 0
0.0540641 -0.000180261 0
0.05406 -0.00014403 0
0.0540569 -0.000107894 0
0.0540548 -7.18482e-05 0
0.0540538 -3.58855e-05 0
0.0526615 0 0
0.0526438 -0.000755724 0
0.0526271 -0.000716637 0
0.0526112 -0.000677704 0
0.0525963 -0.000638925 0
0.0525822 -0.000600297 0
0.052569 -0.000561819 0
0.0525566 -0.000523487 0
0.0525452 -0.0004853 0
0.0525346 -0.000447253 0
0.0525249 -0.000409343 0
0.0525161 -0.000371567 0
0.0525082 -0.000333919 0
0.0525011 -0.000296395 0
0.052495 -0.00025899 0
0.0524897 -0.000221698 0
0.0524853 -0.000184514 0
0.0524817 -0.000147432 0
0.0524791 -0.000110446 0
0.0524773 -7.35493e-05 0
0.0524765 -3.67361e-05 0
0.0510189 0 0
0.0510043 -0.000769767 0
0.0509905 -0.000729985 0
0.0509774 -0.000690358 0
0.050965 -0.000650883 0
0.0509533 -0.000611558 0
0.0509424 -0.000572381 0
0.0509322 -0.000533351 0
0.0509227 -0.000494463 0
0.0509139 -0.000455715 0
0.0509059 -0.000417104 0
0.0508986 -0.000378625 0
0.050892 -0.000340274 0
0.0508861 -0.000302046 0
0.050881 -0.000263936 0
0.0508766 -0.00022594 0
0.050873 -0.00018805 0
0.05087 -0.000150262 0
0.0508678 -0.000112569 0
0.0508664 -7.49655e-05 0
0.0508656 -3.74445e-05 0
0.0493493 0 0
0.0493378 -0.000780875 0
0.0493268 -0.000740554 0
0.0493164 -0.000700385 0
0.0493066 -0.000660366 0
0.0492974 -0.000620495 0
0.0492887 -0.000580771 0
0.0492805 -0.000541191 0
0.049273 -0.000501753 0
0.049266 -0.000462452 0
0.0492596 -0.000423287 0
0.0492538 -0.000384252 0
0.0492485 -0.000345343 0
0.0492439 -0.000306557 0
0.0492398 -0.000267888 0
0.0492363 -0.00022933 0
0.0492333 -0.000190878 0
0.049231 -0.000152527 0
0.0492292 -0.000114269 0
0.0492281 -7.60998e-05 0
0.0492275 -3.80122e-05 0
0.047659 0 0
0.0476505 -0.000789101 0
0.0476423 -0.000748392 0
0.0476346 -0.000707832 0
0.0476273 -0.000667419 0
0.0476204 -0.000627151 0
0.047614 -0.000587028 0
0.0476079 -0.000547045 0
0.0476022 -0.000507202 0
0.047597 -0.000467494 0
0.0475922 -0.000427919 0
0.0475879 -0.000388472 0
0.0475839 -0.00034915 0
0.0475804 -0.000309948 0
0.0475773 -0.00027086 0
0.0475747 -0.000231883 0
0.0475725 -0.00019301 0
0.0475707 -0.000154235 0
0.0475694 -0.000115553 0
0.0475685 -7.69571e-05 0
0.047568 -3.84415e-05 0
0.0459541 0 0
0.0459485 -0.000794517 0
0.0459432 -0.000753567 0
0.0459381 -0.000712761 0
0.0459332 -0.0006721 0
0.0459286 -0.00063158 0
0.0459243 -0.0005912 0
0.0459202 -0.000550959 0
0.0459165 -0.000510853 0
0.045913 -0.00047088 0
0.0459097 -0.000431036 0
0.0459068 -0.000391318 0
0.0459041 -0.000351722 0
0.0459017 -0.000312243 0
0.0458997 -0.000272877 0
0.0458979 -0.000233618 0
0.0458964 -0.000194461 0
0.0458951 -0.0001554 0
0.0458942 -0.000116429 0
0.0458936 -7.75434e-05 0
0.0458933 -3.87356e-05 0
0.0442407 0 0
0.0442379 -0.000797205 0
0.0442352 -0.000756156 0
0.0442326 -0.000715248 0
0.0442302 -0.000674479 0
0.0442278 -0.000633847 0
0.0442256 -0.000593351 0
0.0442235 -0.00055299 0
0.0442215 -0.00051276 0
0.0442197 -0.000472659 0
0.044218 -0.000432684 0
0.0442164 -0.000392831 0
0.044215 -0.000353096 0
0.0442137 -0.000313476 0
0.0442126 -0.000273965 0
0.0442116 -0.000234558 0
0.0442108 -0.000195251 0
0.0442101 -0.000156037 0
0.0442096 -0.000116911 0
0.0442093 -7.78665e-05 0
0.0442091 -3.88983e-05 0
0.0425244 0 0
0.0425243 -0.000797265 0
0.0425242 -0.000756255 0
0.0425241 -0.000715379 0
0.0425239 -0.000674638 0
0.0425237 -0.000634029 0
0.0425235 -0.000593552 0
0.0425233 -0.000553204 0
0.0425231 -0.000512983 0
0.0425228 -0.000472887 0
0.0425226 -0.000432912 0
0.0425223 -0.000393056 0
0.0425221 -0.000353314 0
0.0425219 -0.000313682 0
0.0425217 -0.000274157 0
0.0425215 -0.000234732 0
0.0425214 -0.000195403 0
0.0425212 -0.000156164 0
0.0425211 -0.00011701 0
0.0425211 -7.79355e-05 0
0.042521 -3.8934e-05 0
0.0408108 0 0
0.0408133 -0.000794807 0
0.0408157 -0.000753966 0
0.0408179 -0.000713254 0
0.0408199 -0.000672671 0
0.0408218 -0.000632214 0
0.0408235 -0.000591884 0
0.0408251 -0.000551677 0
0.0408266 -0.000511593 0
0.0408279 -0.000471628 0
0.040829 -0.00043178 0
0.0408301 -0.000392046 0
0.040831 -0.000352422 0
0.0408318 -0.000312904 0
0.0408325 -0.000273488 0
0.0408331 -0.000234169 0
0.0408336 -0.000194942 0
0.0408339 -0.000155802 0
0.0408342 -0.000116743 0
0.0408344 -7.77605e-05 0
0.0408345 -3.8848e-05 0
0.0391052 0 0
0.0391102 -0.000789953 0
0.0391149 -0.000749406 0
0.0391193 -0.000708982 0
0.0391235 -0.000668679 0
0.0391273 -0.000628497 0
0.0391309 -0.000588435 0
0.0391342 -0.000548492 0
0.0391372 -0.000508665 0
0.03914 -0.000468953 0
0.0391425 -0.000429352 0
0.0391448 -0.00038986 0
0.0391468 -0.000350473 0
0.0391486 -0.000311188 0
0.0391501 -0.000272 0
0.0391514 -0.000232905 0
0.0391525 -0.000193898 0
0.0391534 -0.000154973 0
0.039154 -0.000116127 0
0.0391544 -7.73528e-05 0
0.0391546 -3.86457e-05 0
0.0374126 0 0
0.0374199 -0.000782835 0
0.0374269 -0.000742699 0
0.0374334 -0.000702678 0
0.0374395 -0.000662772 0
0.0374453 -0.000622981 0
0.0374506 -0.000583303 0
0.0374555 -0.000543738 0
0.03746 -0.000504283 0
0.0374642 -0.000464937 0
0.037468 -0.000425697 0
0.0374714 -0.00038656 0
0.0374745 -0.000347524 0
0.0374771 -0.000308583 0
0.0374795 -0.000269735 0
0.0374815 -0.000230976 0
0.0374831 -0.0001923 0
0.0374845 -0.000153703 0
0.0374854 -0.000115179 0
0.0374861 -7.67246e-05 0
0.0374864 -3.83333e-05 0
0.0357377 0 0
0.0357473 -0.000773592 0
0.0357563 -0.000733975 0
0.0357648 -0.000694467 0
0.0357728 -0.000655067 0
0.0357803 -0.000615775 0
0.0357872 -0.00057659 0
0.0357937 -0.00053751 0
0.0357996 -0.000498534 0
0.0358051 -0.000459661 0
0.0358101 -0.000420889 0
0.0358146 -0.000382213 0
0.0358186 -0.000343633 0
0.0358222 -0.000305143 0
0.0358253 -0.000266741 0
0.0358279 -0.000228422 0
0.0358301 -0.000190182 0
0.0358319 -0.000152016 0
0.0358332 -0.00011392 0
0.035834 -7.5889e-05 0
0.0358345 -3.79172e-05 0
0.034085 0 0
0.0340966 -0.000762369 0
0.0341076 -0.000723374 0
0.0341179 -0.00068448 0
0.0341277 -0.000645687 0
0.0341368 -0.000606994 0
0.0341452 -0.000568401 0
0.0341531 -0.000529907 0
0.0341604 -0.000491511 0
0.0341671 -0.000453211 0
0.0341732 -0.000415004 0
0.0341787 -0.000376889 0
0.0341836 -0.000338863 0
0.034188 -0.000300923 0
0.0341918 -0.000263064 0
0.034195 -0.000225284 0
0.0341977 -0.000187578 0
0.0341999 -0.000149942 0
0.0342015 -0.00011237 0
0.0342026 -7.48595e-05 0
0.0342031 -3.74044e-05 0
0.0324585 0 0
0.032472 -0.000749318 0
0.0324848 -0.000711038 0
0.0324969 -0.000672851 0
0.0325082 -0.000634758 0
0.0325188 -0.000596757 0
0.0325287 -0.000558849 0
0.0325379 -0.000521033 0
0.0325464 -0.000483308 0
0.0325542 -0.000445672 0
0.0325613 -0.000408124 0
0.0325678 -0.000370661 0
0.0325735 -0.000333281 0
0.0325787 -0.000295981 0
0.0325831 -0.000258757 0
0.0325869 -0.000221606 0
0.0325901 -0.000184524 0
0.0325926 -0.000147507 0
0.0325945 -0.000110551 0
0.0325957 -7.36504e-05 0
0.0325964 -3.68017e-05 0
0.0308621 0 0
0.0308773 -0.000734593 0
0.0308917 -0.000697113 0
0.0309053 -0.000659718 0
0.0309181 -0.000622409 0
0.0309301 -0.000585185 0
0.0309413 -0.000548047 0
0.0309517 -0.000510993 0
0.0309613 -0.000474024 0
0.0309702 -0.000437137 0
0.0309782 -0.00040033 0
0.0309855 -0.000363603 0
0.0309921 -0.000326952 0
0.0309979 -0.000290376 0
0.031003 -0.00025387 0
0.0310073 -0.000217431 0
0.0310109 -0.000181057 0
0.0310137 -0.000144742 0
0.0310159 -0.000108483 0
0.0310173 -7.22762e-05 0
0.031018 -3.61166e-05 0
0.0292991 0 0
0.0293159 -0.00071835 0
0.0293318 -0.000681747 0
0.0293468 -0.000645221 0
0.0293609 -0.000608773 0
0.0293742 -0.000572403 0
0.0293865 -0.00053611 0
0.029398 -0.000499895 0
0.0294087 -0.000463757 0
0.0294184 -0.000427695 0
0.0294274 -0.000391706 0
0.0294355 -0.000355791 0
0.0294427 -0.000319945 0
0.0294491 -0.000284168 0
0.0294548 -0.000248455 0
0.0294595 -0.000212805 0
0.0294635 -0.000177213 0
0.0294667 -0.000141676 0
0.0294691 -0.00010619 0
0.0294707 -7.07517e-05 0
0.0294714 -3.53563e-05 0
0.0277726 0 0
0.0277908 -0.000700748 0
0.0278081 -0.00066509 0
0.0278243 -0.000629501 0
0.0278397 -0.000593982 0
0.027854 -0.000558534 0
0.0278674 -0.000523155 0
0.0278799 -0.000487847 0
0.0278915 -0.000452609 0
0.0279021 -0.000417439 0
0.0279118 -0.000382336 0
0.0279206 -0.0003473 0
0.0279285 -0.000312328 0
0.0279355 -0.000277418 0
0.0279416 -0.000242567 0
0.0279468 -0.000207772 0
0.0279511 -0.000173031 0
0.0279546 -0.000138339 0
0.0279571 -0.000103694 0
0.0279589 -6.90918e-05 0
0.0279597 -3.45284e-05 0
0.0262854 0 0
0.0263048 -0.000681943 0
0.0263233 -0.00064729 0
0.0263407 -0.000612699 0
0.0263571 -0.000578169 0
0.0263724 -0.000543702 0
0.0263868 -0.000509298 0
0.0264001 -0.000474957 0
0.0264125 -0.000440678 0
0.0264239 -0.000406461 0
0.0264342 -0.000372305 0
0.0264437 -0.000338208 0
0.0264521 -0.000304169 0
0.0264596 -0.000270186 0
0.0264661 -0.000236257 0
0.0264717 -0.000202378 0
0.0264764 -0.000168547 0
0.0264801 -0.000134762 0
0.0264828 -0.000101018 0
0.0264847 -6.73115e-05 0
0.0264856 -3.36402e-05 0
0.0248399 0 0
0.0248604 -0.000662092 0
0.0248799 -0.000628496 0
0.0248983 -0.000594953 0
0.0249156 -0.000561465 0
0.0249318 -0.000528031 0
0.024947 -0.000494653 0
0.0249611 -0.000461331 0
0.0249742 -0.000428064 0
0.0249862 -0.000394852 0
0.0249972 -0.000361694 0
0.0250071 -0.00032859 0
0.0250161 -0.000295537 0
0.025024 -0.000262533 0
0.0250309 -0.000229578 0
0.0250368 -0.000196668 0
0.0250417 -0.000163801 0
0.0250457 -0.000130973 0
0.0250486 -9.81825e-05 0
0.0250506 -6.54257e-05 0
0.0250515 -3.26992e-05 0
0.0234382 0 0
0.0234596 -0.000641347 0
0.02348 -0.000608851 0
0.0234992 -0.000576401 0
0.0235173 -0.000543998 0
0.0235343 -0.000511642 0
0.0235501 -0.000479334 0
0.0235649 -0.000447075 0
0.0235786 -0.000414864 0
0.0235911 -0.000382702 0
0.0236027 -0.000350587 0
0.0236131 -0.000318519 0
0.0236224 -0.000286497 0
0.0236307 -0.000254518 0
0.023638 -0.000222582 0
0.0236442 -0.000190686 0
0.0236493 -0.000158827 0
0.0236535 -0.000127003 0
0.0236565 -9.52112e-05 0
0.0236586 -6.34488e-05 0
0.0236596 -3.17128e-05 0
0.022082 0 0
0.0221042 -0.000619858 0
0.0221253 -0.000588498 0
0.0221452 -0.000557176 0
0.022164 -0.000525894 0
0.0221816 -0.000494652 0
0.022198 -0.000463451 0
0.0222133 -0.000432291 0
0.0222275 -0.000401174 0
0.0222406 -0.000370098 0
0.0222525 -0.000339064 0
0.0222633 -0.00030807 0
0.022273 -0.000277115 0
0.0222816 -0.000246199 0
0.0222892 -0.00021532 0
0.0222956 -0.000184474 0
0.022301 -0.000153662 0
0.0223052 -0.00012288 0
0.0223084 -9.21249e-05 0
0.0223105 -6.13952e-05 0
0.0223116 -3.06879e-05 0
0.0207728 0 0
0.0207956 -0.000597769 0
0.0208173 -0.000567573 0
0.0208378 -0.000537408 0
0.0208571 -0.000507275 0
0.0208752 -0.000477176 0
0.0208921 -0.000447111 0
0.0209078 -0.00041708 0
0.0209224 -0.000387086 0
0.0209359 -0.000357126 0
0.0209482 -0.000327202 0
0.0209593 -0.000297312 0
0.0209693 -0.000267455 0
0.0209782 -0.000237632 0
0.0209859 -0.000207839 0
0.0209926 -0.000178076 0
0.0209981 -0.000148341 0
0.0210025 -0.000118631 0
0.0210058 -8.89447e-05 0
0.0210079 -5.92789e-05 0
0.021009 -2.96315e-05 0
0.0195117 0 0
0.019535 -0.000575219 0
0.0195571 -0.000546208 0
0.019578 -0.000517221 0
0.0195977 -0.000488259 0
0.0196162 -0.000459324 0
0.0196335 -0.000430417 0
0.0196496 -0.000401538 0
0.0196645 -0.000372688 0
0.0196783 -0.000343867 0