# vtk DataFile Version 3.0
vtk output
ASCII
DATASET UNSTRUCTURED_GRID
POINTS 1913 double
0.045977 0 0
0.045977 0.0952381 0
0.045977 0.142857 0
0.045977 0.190476 0
0.045977 0.238095 0
0.045977 0.285714 0
0.045977 0.333333 0
0.045977 0.380952 0
0.045977 0.428571 0
0.045977 0.47619 0
0.045977 0.52381 0
0.045977 0.571429 0
0.045977 0.619048 0
0.045977 0.666667 0
0.045977 0.714286 0
0.045977 0.761905 0
0.045977 0.809524 0
0.045977 0.857143 0
0.045977 0.904762 0
0.045977 0.952381 0
0.045977 1 0
0.091954 0 0
0.091954 0.047619 0
0.091954 0.0952381 0
0.091954 0.142857 0
0.091954 0.190476 0
0.091954 0.238095 0
0.091954 0.285714 0
0.091954 0.333333 0
0.091954 0.380952 0
0.091954 0.428571 0
0.091954 0.47619 0
0.091954 0.52381 0
0.091954 0.571429 0
0.091954 0.619048 0
0.091954 0.666667 0
0.091954 0.714286 0
0.091954 0.761905 0
0.091954 0.809524 0
0.091954 0.857143 0
0.091954 0.904762 0
0.091954 0.952381 0
0.091954 1 0
0.137931 0 0
0.137931 0.047619 0
0.137931 0.0952381 0
0.137931 0.142857 0
0.137931 0.190476 0
0.137931 0.238095 0
0.137931 0.285714 0
0.137931 0.333333 0
0.137931 0.380952 0
0.137931 0.428571 0
0.137931 0.47619 0
0.137931 0.52381 0
0.137931 0.571429 0
0.137931 0.619048 0
0.137931 0.666667 0
0.137931 0.714286 0
0.137931 0.761905 0
0.137931 0.809524 0
0.137931 0.857143 0
0.137931 0.904762 0
0.137931 0.952381 0
0.137931 1 0
0.183908 0 0
0.183908 0.047619 0
0.183908 0.0952381 0
0.183908 0.142857 0
0.183908 0.190476 0
0.183908 0.238095 0
0.183908 0.285714 0
0.183908 0.333333 0
0.183908 0.380952 0
0.183908 0.428571 0
0.183908 0.47619 0
0.183908 0.52381 0
0.183908 0.571429 0
0.183908 0.619048 0
0.183908 0.666667 0
0.183908 0.714286 0
0.183908 0.761905 0
0.183908 0.809524 0
0.183908 0.857143 0
0.183908 0.904762 0
0.183908 0.952381 0
0.183908 1 0
0.229885 0 0
0.229885 0.047619 0
0.229885 0.0952381 0
0.229885 0.142857 0
0.229885 0.190476 0
0.229885 0.238095 0
0.229885 0.285714 0
0.229885 0.333333 0
0.229885 0.380952 0
0.229885 0.428571 0
0.229885 0.47619 0
0.229885 0.52381 0
0.229885 0.571429 0
0.229885 0.619048 0
0.229885 0.666667 0
0.229885 0.714286 0
0.229885 0.761905 0
0.229885 0.809524 0
0.229885 0.857143 0
0.229885 0.904762 0
0.229885 0.952381 0
0.229885 1 0
0.275862 0 0
0.275862 0.047619 0
0.275862 0.0952381 0
0.275862 0.142857 0
0.275862 0.190476 0
0.275862 0.238095 0
0.275862 0.285714 0
0.275862 0.333333 0
0.275862 0.380952 0
0.275862 0.428571 0
0.275862 0.47619 0
0.275862 0.52381 0
0.275862 0.571429 0
0.275862 0.619048 0
0.275862 0.666667 0
0.275862 0.714286 0
0.275862 0.761905 0
0.275862 0.809524 0
0.275862 0.857143 0
0.275862 0.904762 0
0.275862 0.952381 0
0.275862 1 0
0.321839 0 0
0.321839 0.047619 0
0.321839 0.0952381 0
0.321839 0.142857 0
0.321839 0.190476 0
0.321839 0.238095 0
0.321839 0.285714 0
0.321839 0.333333 0
0.321839 0.380952 0
0.321839 0.428571 0
0.321839 0.47619 0
0.321839 0.52381 0
0.321839 0.571429 0
0.321839 0.619048 0
0.321839 0.666667 0
0.321839 0.714286 0
0.321839 0.761905 0
0.321839 0.809524 0
0.321839 0.857143 0
0.321839 0.904762 0
0.321839 0.952381 0
0.321839 1 0
0.367816 0 0
0.367816 0.047619 0
0.367816 0.0952381 0
0.367816 0.142857 0
0.367816 0.190476 0
0.367816 0.238095 0
0.367816 0.285714 0
0.367816 0.333333 0
0.367816 0.380952 0
0.367816 0.428571 0
0.367816 0.47619 0
0.367816 0.52381 0
0.367816 0.571429 0
0.367816 0.619048 0
0.367816 0.666667 0
0.367816 0.714286 0
0.367816 0.761905 0
0.367816 0.809524 0
0.367816 0.857143 0
0.367816 0.904762 0
0.367816 0.952381 0
0.367816 1 0
0.413793 0 0
0.413793 0.047619 0
0.413793 0.0952381 0
0.413793 0.142857 0
0.413793 0.190476 0
0.413793 0.238095 0
0.413793 0.285714 0
0.413793 0.333333 0
0.413793 0.380952 0
0.413793 0.428571 0
0.413793 0.47619 0
0.413793 0.52381 0
0.413793 0.571429 0
0.413793 0.619048 0
0.413793 0.666667 0
0.413793 0.714286 0
0.413793 0.761905 0
0.413793 0.809524 0
0.413793 0.857143 0
0.413793 0.904762 0
0.413793 0.952381 0
0.413793 1 0
0.45977 0 0
0.45977 0.047619 0
0.45977 0.0952381 0
0.45977 0.142857 0
0.45977 0.190476 0
0.45977 0.238095 0
0.45977 0.285714 0
0.45977 0.333333 0
0.45977 0.380952 0
0.45977 0.428571 0
0.45977 0.47619 0
0.45977 0.52381 0
0.45977 0.571429 0
0.45977 0.619048 0
0.45977 0.666667 0
0.45977 0.714286 0
0.45977 0.761905 0
0.45977 0.809524 0
0.45977 0.857143 0
0.45977 0.904762 0
0.45977 0.952381 0
0.45977 1 0
0.505747 0 0
0.505747 0.047619 0
0.505747 0.0952381 0
0.505747 0.142857 0
0.505747 0.190476 0
0.505747 0.238095 0
0.505747 0.285714 0
0.505747 0.333333 0
0.505747 0.380952 0
0.505747 0.428571 0
0.505747 0.47619 0
0.505747 0.52381 0
0.505747 0.571429 0
0.505747 0.619048 0
0.505747 0.666667 0
0.505747 0.714286 0
0.505747 0.761905 0
0.505747 0.809524 0
0.505747 0.857143 0
0.505747 0.904762 0
0.505747 0.952381 0
0.505747 1 0
0.551724 0 0
0.551724 0.047619 0
0.551724 0.0952381 0
0.551724 0.142857 0
0.551724 0.190476 0
0.551724 0.238095 0
0.551724 0.285714 0
0.551724 0.333333 0
0.551724 0.380952 0
0.551724 0.428571 0
0.551724 0.47619 0
0.551724 0.52381 0
0.551724 0.571429 0
0.551724 0.619048 0
0.551724 0.666667 0
0.551724 0.714286 0
0.551724 0.761905 0
0.551724 0.809524 0
0.551724 0.857143 0
0.551724 0.904762 0
0.551724 0.952381 0
0.551724 1 0
0.597701 0 0
0.597701 0.047619 0
0.597701 0.0952381 0
0.597701 0.142857 0
0.597701 0.190476 0
0.597701 0.238095 0
0.597701 0.285714 0
0.597701 0.333333 0
0.597701 0.380952 0
0.597701 0.428571 0
0.597701 0.47619 0
0.597701 0.52381 0
0.597701 0.571429 0
0.597701 0.619048 0
0.597701 0.666667 0
0.597701 0.714286 0
0.597701 0.761905 0
0.597701 0.809524 0
0.597701 0.857143 0
0.597701 0.904762 0
0.597701 0.952381 0
0.597701 1 0
0.643678 0 0
0.643678 0.047619 0
0.643678 0.0952381 0
0.643678 0.142857 0
0.643678 0.190476 0
0.643678 0.238095 0
0.643678 0.285714 0
0.643678 0.333333 0
0.643678 0.380952 0
0.643678 0.428571 0
0.643678 0.47619 0
0.643678 0.52381 0
0.643678 0.571429 0
0.643678 0.619048 0
0.643678 0.666667 0
0.643678 0.714286 0
0.643678 0.761905 0
0.643678 0.809524 0
0.643678 0.857143 0
0.643678 0.904762 0
0.643678 0.952381 0
0.643678 1 0
0.689655 0 0
0.689655 0.047619 0
0.689655 0.0952381 0
0.689655 0.142857 0
0.689655 0.190476 0
0.689655 0.238095 0
0.689655 0.285714 0
0.689655 0.333333 0
0.689655 0.380952 0
0.689655 0.428571 0
0.689655 0.47619 0
0.689655 0.52381 0
0.689655 0.571429 0
0.689655 0.619048 0
0.689655 0.666667 0
0.689655 0.714286 0
0.689655 0.761905 0
0.689655 0.809524 0
0.689655 0.857143 0
0.689655 0.904762 0
0.689655 0.952381 0
0.689655 1 0
0.735632 0 0
0.735632 0.047619 0
0.735632 0.0952381 0
0.735632 0.142857 0
0.735632 0.190476 0
0.735632 0.238095 0
0.735632 0.285714 0
0.735632 0.333333 0
0.735632 0.380952 0
0.735632 0.428571 0
0.735632 0.47619 0
0.735632 0.52381 0
0.735632 0.571429 0
0.735632 0.619048 0
0.735632 0.666667 0
0.735632 0.714286 0
0.735632 0.761905 0
0.735632 0.809524 0
0.735632 0.857143 0
0.735632 0.904762 0
0.735632 0.952381 0
0.735632 1 0
0.781609 0 0
0.781609 0.047619 0
0.781609 0.0952381 0
0.781609 0.142857 0
0.781609 0.190476 0
0.781609 0.238095 0
0.781609 0.285714 0
0.781609 0.333333 0
0.781609 0.380952 0
0.781609 0.428571 0
0.781609 0.47619 0
0.781609 0.52381 0
0.781609 0.571429 0
0.781609 0.619048 0
0.781609 0.666667 0
0.781609 0.714286 0
0.781609 0.761905 0
0.781609 0.809524 0
0.781609 0.857143 0
0.781609 0.904762 0
0.781609 0.952381 0
0.781609 1 0
0.827586 0 0
0.827586 0.047619 0
0.827586 0.0952381 0
0.827586 0.142857 0
0.827586 0.190476 0
0.827586 0.238095 0
0.827586 0.285714 0
0.827586 0.333333 0
0.827586 0.380952 0
0.827586 0.428571 0
0.827586 0.47619 0
0.827586 0.52381 0
0.827586 0.571429 0
0.827586 0.619048 0
0.827586 0.666667 0
0.827586 0.714286 0
0.827586 0.761905 0
0.827586 0.809524 0
0.827586 0.857143 0
0.827586 0.904762 0
0.827586 0.952381 0
0.827586 1 0
0.873563 0 0
0.873563 0.047619 0
0.873563 0.0952381 0
0.873563 0.142857 0
0.873563 0.190476 0
0.873563 0.238095 0
0.873563 0.285714 0
0.873563 0.333333 0
0.873563 0.380952 0
0.873563 0.428571 0
0.873563 0.47619 0
0.873563 0.52381 0
0.873563 0.571429 0
0.873563 0.619048 0
0.873563 0.666667 0
0.873563 0.714286 0
0.873563 0.761905 0
0.873563 0.809524 0
0.873563 0.857143 0
0.873563 0.904762 0
0.873563 0.952381 0
0.873563 1 0
0.91954 0 0
0.91954 0.047619 0
0.91954 0.0952381 0
0.91954 0.142857 0
0.91954 0.190476 0
0.91954 0.238095 0
0.91954 0.285714 0
0.91954 0.333333 0
0.91954 0.380952 0
0.91954 0.428571 0
0.91954 0.47619 0
0.91954 0.52381 0
0.91954 0.571429 0
0.91954 0.619048 0
0.91954 0.666667 0
0.91954 0.714286 0
0.91954 0.761905 0
0.91954 0.809524 0
0.91954 0.857143 0
0.91954 0.904762 0
0.91954 0.952381 0
0.91954 1 0
0.965517 0 0
0.965517 0.047619 0
0.965517 0.0952381 0
0.965517 0.142857 0
0.965517 0.190476 0
0.965517 0.238095 0
0.965517 0.285714 0
0.965517 0.333333 0
0.965517 0.380952 0
0.965517 0.428571 0
0.965517 0.47619 0
0.965517 0.52381 0
0.965517 0.571429 0
0.965517 0.619048 0
0.965517 0.666667 0
0.965517 0.714286 0
0.965517 0.761905 0
0.965517 0.809524 0
0.965517 0.857143 0
0.965517 0.904762 0
0.965517 0.952381 0
0.965517 1 0
1.01149 0 0
1.01149 0.047619 0
1.01149 0.0952381 0
1.01149 0.142857 0
1.01149 0.190476 0
1.01149 0.238095 0
1.01149 0.285714 0
1.01149 0.333333 0
1.01149 0.380952 0
1.01149 0.428571 0
1.01149 0.47619 0
1.01149 0.52381 0
1.01149 0.571429 0
1.01149 0.619048 0
1.01149 0.666667 0
1.01149 0.714286 0
1.01149 0.761905 0
1.01149 0.809524 0
1.01149 0.857143 0
1.01149 0.904762 0
1.01149 0.952381 0
1.01149 1 0
1.05747 0 0
1.05747 0.047619 0
1.05747 0.0952381 0
1.05747 0.142857 0
1.05747 0.190476 0
1.05747 0.238095 0
1.05747 0.285714 0
1.05747 0.333333 0
1.05747 0.380952 0
1.05747 0.428571 0
1.05747 0.47619 0
1.05747 0.52381 0
1.05747 0.571429 0
1.05747 0.619048 0
1.05747 0.666667 0
1.05747 0.714286 0
1.05747 0.761905 0
1.05747 0.809524 0
1.05747 0.857143 0
1.05747 0.904762 0
1.05747 0.952381 0
1.05747 1 0
1.10345 0 0
1.10345 0.047619 0
1.10345 0.0952381 0
1.10345 0.142857 0
1.10345 0.190476 0
1.10345 0.238095 0
1.10345 0.285714 0
1.10345 0.333333 0
1.10345 0.380952 0
1.10345 0.428571 0
1.10345 0.47619 0
1.10345 0.52381 0
1.10345 0.571429 0
[...]
POINT_DATA 1913
VECTORS velocity[m/s] double
-0 0.139414 0
0 0.140416 0
0 0.111698 0
0 0.0804722 0
0 0.058887 0
0 0.0437772 0
0 0.0325065 0
0 0.0235531 0
0 0.0160222 0
0 0.00934503 0
0 0.00312191 0
0 -0.0029666 0
0 -0.00921845 0
0 -0.0159619 0
0 -0.023619 0
0 -0.0328061 0
0 -0.0445226 0
0 -0.060535 0
0 -0.0841044 0
0 -0.119992 0
0 -0.157536 0
-0.817348 0.0972119 0
0.818785 0.000857409 0
0.983119 0.0983251 0
0.986663 0.0912856 0
0.978286 0.0707125 0
0.972764 0.0538484 0
0.969621 0.0410165 0
0.967812 0.0309311 0
0.966753 0.0226349 0
0.966144 0.015493 0
0.965831 0.00906722 0
0.965741 0.00302983 0
0.965855 -0.00289105 0
0.9662 -0.00895186 0
0.966861 -0.0154298 0
0.968013 -0.0226648 0
0.970008 -0.0311167 0
0.97356 -0.0414544 0
0.980067 -0.0546775 0
0.990914 -0.0720734 0
0.991161 -0.0929487 0
0.801376 -0.0976634 0
-0.724332 0.0526934 0
0.724704 0.000475528 0
0.989934 0.0534897 0
1.00654 0.0610255 0
0.994586 0.0538788 0
0.985171 0.0444072 0
0.979376 0.0354911 0
0.97584 0.0275839 0
0.973666 0.0205804 0
0.972366 0.0142638 0
0.971678 0.00841517 0
0.971476 0.00283459 0
0.971725 -0.00266235 0
0.972473 -0.00825456 0
0.973864 -0.0141267 0
0.976191 -0.0204775 0
0.980007 -0.0275184 0
0.986345 -0.0354358 0
0.99688 -0.0442365 0
1.01109 -0.0531685 0
0.995731 -0.0585239 0
0.707098 -0.046963 0
-0.673943 0.0259479 0
0.673554 0.000234575 0
0.982683 0.026374 0
1.01347 0.0373387 0
1.00376 0.0379396 0
0.993804 0.0341888 0
0.987035 0.0289319 0
0.982626 0.0233436 0
0.979789 0.0178548 0
0.978037 0.0125806 0
0.97709 0.00750551 0
0.976807 0.0025622 0
0.977148 -0.00233565 0
0.978166 -0.00727808 0
0.980019 -0.012348 0
0.983013 -0.0176033 0
0.987675 -0.0230371 0
0.994865 -0.0284835 0
1.00553 -0.0333983 0
1.01628 -0.0363693 0
0.984592 -0.034168 0
0.661778 -0.0212963 0
-0.649156 0.0129819 0
0.64836 0.000117255 0
0.972127 0.013178 0
1.01292 0.0225436 0
1.00741 0.0258995 0
0.99891 0.025326 0
0.99246 0.0226562 0
0.987955 0.0189944 0
0.984911 0.0149187 0
0.982966 0.0107054 0
0.981892 0.00647 0
0.981565 0.0022473 0
0.981949 -0.00196469 0
0.98309 -0.00617712 0
0.985123 -0.0103872 0
0.988288 -0.014549 0
0.992963 -0.0185241 0
0.99964 -0.0219952 0
1.00843 -0.0243136 0
1.01419 -0.0242776 0
0.972194 -0.0200331 0
0.641245 -0.0102581 0
-0.636785 0.00705614 0
0.635802 6.35966e-05 0
0.96312 0.00714406 0
1.00971 0.0139844 0
1.008 0.0176292 0
1.00152 0.0184257 0
0.996031 0.0173021 0
0.991925 0.0150273 0
0.989013 0.0121083 0
0.98709 0.008849 0
0.986003 0.00542176 0
0.985666 0.00192223 0
0.986051 -0.00159278 0
0.98719 -0.00507704 0
0.989175 -0.00846957 0
0.992161 -0.0116656 0
0.996349 -0.0144768 0
1.00191 -0.0165761 0
1.00843 -0.0174295 0
1.01012 -0.0162581 0
0.96279 -0.0122302 0
0.631375 -0.00552304 0
-0.630091 0.00422393 0
0.629024 3.79889e-05 0
0.956555 0.0042664 0
1.00623 0.00903111 0
1.00727 0.0121265 0
1.00265 0.0133294 0
0.998266 0.0130219 0
0.994782 0.0116604 0
0.992199 0.00961473 0
0.990437 0.00714871 0
0.989421 0.00444063 0
0.989098 0.00161144 0
0.989453 -0.00124959 0
0.990503 -0.0040624 0
0.992299 -0.00673494 0
0.994913 -0.00914056 0
0.998414 -0.0110928 0
1.00277 -0.0123195 0
1.00733 -0.012449 0
1.00627 -0.0110471 0
0.956352 -0.00782599 0
0.626081 -0.00330469 0
-0.626111 0.00272977 0
0.625004 2.45132e-05 0
0.951998 0.00275295 0
1.00329 0.00605686 0
1.00615 0.00846605 0
1.00298 0.00965108 0
0.999622 0.00972503 0
0.996798 0.008931 0
0.994621 0.00751287 0
0.993093 0.00567392 0
0.992194 0.00357222 0
0.991902 0.00133017 0
0.99221 -0.000951485 0
0.993125 -0.00317871 0
0.994663 -0.00524933 0
0.99684 -0.00703845 0
0.99964 -0.00838556 0
1.00294 -0.00908763 0
1.00602 -0.00890914 0
1.0032 -0.00763311 0
0.952028 -0.00521104 0
0.622931 -0.00213255 0
-0.623566 0.00185725 0
0.622437 1.66621e-05 0
0.948853 0.0018714 0
1.00101 0.00418599 0
1.00505 0.00599774 0
1.00296 0.0070151 0
1.00043 0.00723764 0
0.998212 0.00678327 0
0.996441 0.00580315 0
0.995167 0.00444392 0
0.994403 0.00283451 0
0.994149 0.00108567 0
0.994405 -0.000704274 0
0.995168 -0.00244117 0
0.996435 -0.00402632 0
0.998184 -0.00534864 0
1.00036 -0.00628008 0
1.00281 -0.006678 0
1.00483 -0.00640156 0
1.00091 -0.00535355 0
0.9491 -0.00357382 0
0.620916 -0.00144345 0
-0.621858 0.00130664 0
0.620716 1.17153e-05 0
0.946665 0.00131593 0
0.999305 0.00295875 0
1.00411 0.00430363 0
1.00279 0.00512444 0
1.00092 0.00538143 0
0.999204 0.00512544 0
0.997799 0.00444667 0
0.996767 0.00344703 0
0.996137 0.00222666 0
0.995923 0.00087936 0
0.996128 -0.000506629 0
0.996745 -0.00184523 0
0.997757 -0.00304847 0
0.999129 -0.00402342 0
1.00079 -0.00467225 0
1.00259 -0.00489796 0
1.00387 -0.00461934 0
0.999235 -0.00379982 0
0.947089 -0.00250239 0
0.619568 -0.00100615 0
-0.620679 0.000940557 0
0.619529 8.42969e-06 0
0.945127 0.000946928 0
0.998054 0.00212658 0
1.00337 0.00312093 0
1.00259 0.00376242 0
1.00121 0.0040035 0
0.999907 0.00386156 0
0.998812 0.00338915 0
0.997992 0.00265578 0
0.997485 0.00173703 0
0.997308 0.000709028 0
0.997467 -0.000353246 0
0.997953 -0.00137557 0
0.998746 -0.00228353 0
0.999803 -0.00300234 0
1.00106 -0.00345907 0
1.00237 -0.00358868 0
1.00312 -0.00334547 0
0.99803 -0.00272131 0
0.945691 -0.00177743 0
0.618644 -0.000714489 0
-0.619851 0.000688672 0
0.618695 6.17041e-06 0
0.944036 0.000693157 0
0.997142 0.00154813 0
1.0028 0.00228311 0
1.0024 0.00277582 0
1.0014 0.00298269 0
1.00041 0.00290561 0
0.999568 0.00257476 0
0.998927 0.00203725 0
0.998525 0.00134917 0
0.998382 0.000570576 0
0.998502 -0.000237163 0
0.998878 -0.00101259 0
0.999487 -0.00169498 0
1.00029 -0.00222566 0
1.00123 -0.00255096 0
1.00218 -0.00262737 0
1.00257 -0.00242958 0
0.997166 -0.00196153 0
0.944712 -0.00127495 0
0.618002 -0.000513678 0
-0.619264 0.000511291 0
0.618103 4.58006e-06 0
0.943259 0.000514503 0
0.996481 0.00113861 0
1.00237 0.00168251 0
1.00225 0.00205725 0
1.00152 0.00222662 0
1.00078 0.00218612 0
1.00013 0.00195294 0
0.999639 0.00155902 0
0.999325 0.00104563 0
0.999209 0.000459242 0
0.999298 -0.000151242 0
0.999584 -0.000736391 0
1.00005 -0.00124789 0
1.00065 -0.0016405 0
1.00135 -0.00187494 0
1.00204 -0.00192194 0
1.00216 -0.00176766 0
0.996551 -0.00142018 0
0.944025 -0.000920685 0
0.617553 -0.000372543 0
-0.618847 0.000384297 0
0.617683 3.44178e-06 0
0.942705 0.000386625 0
0.996004 0.000844695 0
1.00205 0.00124785 0
1.00214 0.00153128 0
1.00161 0.00166623 0
1.00105 0.00164619 0
1.00056 0.00148087 0
1.00018 0.00119211 0
0.999938 0.000810099 0
0.999846 0.000370334 0
0.99991 -8.89643e-05 0
1.00013 -0.000528873 0
1.00047 -0.000911657 0
1.00093 -0.00120283 0
1.00144 -0.00137368 0
1.00194 -0.00140434 0
1.00187 -0.00128727 0
0.996116 -0.00103119 0
0.943543 -0.000667881 0
0.617241 -0.00027198 0
-0.618549 0.000292237 0
0.617383 2.61681e-06 0
0.94231 0.000293943 0
0.995661 0.000631548 0
1.00183 0.00093089 0
1.00205 0.0011446 0
1.00167 0.00125036 0
1.00126 0.00124161 0
1.00089 0.00112385 0
1.0006 0.00091207 0
1.00041 0.00062838 0
1.00034 0.000299611 0
1.00038 -4.47811e-05 0
1.00054 -0.000374622 0
1.0008 -0.000660837 0
1.00114 -0.000877348 0
1.00152 -0.00100315 0
1.00187 -0.00102457 0
1.00167 -0.000937553 0
0.995812 -0.000749953 0
0.943208 -0.000485944 0
0.617025 -0.000199645 0
-0.618339 0.000224832 0
0.61717 2.01288e-06 0
0.94203 0.000226097 0
0.995418 0.000475705 0
1.00167 0.000698328 0
1.002 0.000859219 0
1.00173 0.000941258 0
1.00142 0.000938635 0
1.00114 0.000854421 0
1.00092 0.000699044 0
1.00077 0.000488662 0
1.00071 0.000243436 0
1.00075 -1.41748e-05 0
1.00086 -0.000261048 0
1.00106 -0.000475006 0
1.00131 -0.000636433 0
1.00159 -0.000729936 0
1.00183 -0.000745984 0
1.00154 -0.000682394 0
0.995602 -0.000545727 0
0.942977 -0.00035422 0
0.616878 -0.000147262 0
-0.618191 0.000175056 0
0.617021 1.56696e-06 0
0.941833 0.000176005 0
0.995248 0.000360986 0
1.00156 0.000526803 0
1.00196 0.000647865 0
1.00177 0.000711111 0
1.00154 0.00071169 0
1.00133 0.000651309 0
1.00116 0.000537276 0
1.00105 0.000381413 0
1.00101 0.000198795 0
1.00103 6.41469e-06 0
1.00111 -0.000178164 0
1.00126 -0.000338149 0
1.00144 -0.000458842 0
1.00165 -0.000528937 0
1.00182 -0.000541702 0
1.00145 -0.000495965 0
0.995462 -0.000396976 0
0.942822 -0.000258443 0
0.61678 -0.000109134 0
-0.618088 0.000138003 0
0.616917 1.23506e-06 0
0.941698 0.000138727 0
0.995131 0.000276041 0
1.00148 0.000399717 0
1.00194 0.000490825 0
1.00182 0.000539411 0
1.00164 0.000541557 0
1.00149 0.000498195 0
1.00136 0.000414489 0
1.00127 0.000299095 0
1.00124 0.000163248 0
1.00125 1.97278e-05 0
1.00131 -0.000118211 0
1.00142 -0.000237921 0
1.00155 -0.000328422 0
1.0017 -0.000381388 0
1.00182 -0.000392009 0
1.0014 -0.000359651 0
0.995372 -0.000288411 0
0.942721 -0.00018859 0
0.616718 -8.12666e-05 0
-0.618019 0.000110203 0
0.616847 9.86081e-07 0
0.941608 0.000110766 0
0.995054 0.000212793 0
1.00144 0.000305154 0
1.00194 0.000373767 0
1.00186 0.00041103 0
1.00173 0.000413836 0
1.00161 0.00038268 0
1.00151 0.000321233 0
1.00145 0.00023584 0
1.00142 0.000134851 0
1.00143 2.78356e-05 0
1.00147 -7.5251e-05 0
1.00155 -0.000164924 0
1.00164 -0.000232994 0
1.00175 -0.000273316 0
1.00183 -0.000282421 0
1.00137 -0.000259957 0
0.995317 -0.000209074 0
0.942659 -0.000137527 0
0.616682 -6.08207e-05 0
-0.617974 8.91697e-05 0
0.616801 7.97725e-07 0
0.941549 8.96165e-05 0
0.995005 0.000165441 0
1.00141 0.000234492 0
1.00194 0.000286224 0
1.00189 0.000314795 0
1.0018 0.000317772 0
1.00171 0.000295397 0
1.00163 0.000250296 0
1.00158 0.000187122 0
1.00156 0.000112069 0
1.00157 3.22805e-05 0
1.0016 -4.47951e-05 0
1.00165 -0.000112066 0
1.00172 -0.000163431 0
1.0018 -0.000194349 0
1.00184 -0.000202293 0
1.00136 -0.000187062 0
0.995288 -0.000151052 0
0.942625 -0.000100131 0
0.616663 -4.57612e-05 0
-0.617947 7.31069e-05 0
0.616774 6.53902e-07 0
0.941515 7.34714e-05 0
0.994977 0.000129781 0
1.0014 0.000181457 0
1.00196 0.000220519 0
1.00193 0.000242447 0
1.00186 0.000245338 0
1.00179 0.000229296 0
1.00173 0.000196204 0
1.0017 0.000149476 0
1.00168 9.37008e-05 0
1.00168 3.41967e-05 0
1.0017 -2.34786e-05 0
1.00174 -7.40342e-05 0
1.00179 -0.00011293 0
1.00185 -0.000136801 0
1.00187 -0.000143795 0
1.00137 -0.00013379 0
0.995278 -0.000108602 0
0.942611 -7.26981e-05 0
0.616658 -3.46188e-05 0
-0.617933 6.07097e-05 0
0.616759 5.42918e-07 0
0.941498 6.10155e-05 0
0.994965 0.000102752 0
1.0014 0.000141456 0
1.00197 0.000171009 0
1.00196 0.000187872 0
1.00191 0.000190556 0
1.00186 0.000179088 0
1.00182 0.000154822 0
1.00179 0.000120264 0
1.00177 7.88092e-05 0
1.00177 3.44089e-05 0
1.00179 -8.79823e-06 0
1.00181 -4.68712e-05 0
1.00185 -7.64324e-05 0
1.00189 -9.49867e-05 0
1.0019 -0.000101167 0
1.00138 -9.48922e-05 0
0.99528 -7.75358e-05 0
0.942612 -5.25377e-05 0
0.616662 -2.63284e-05 0
-0.617928 5.10246e-05 0
0.616754 4.56229e-07 0
0.941493 5.12885e-05 0
0.994963 8.21123e-05 0
1.00141 0.000111119 0
1.00199 0.000133532 0
1.002 0.000146537 0
1.00196 0.000148969 0
1.00192 0.000140809 0
1.00189 0.000123034 0
1.00186 9.74831e-05 0
1.00185 6.6664e-05 0
1.00185 3.35096e-05 0
1.00186 1.09703e-06 0
1.00188 -2.76418e-05 0
1.00191 -5.01951e-05 0
1.00193 -6.47092e-05 0
1.00193 -7.01697e-05 0
1.0014 -6.65189e-05 0
0.995292 -5.47965e-05 0
0.942622 -3.76887e-05 0
0.616672 -2.01155e-05 0
-0.617931 4.3352e-05 0
0.616755 3.87569e-07 0
0.941498 4.35862e-05 0
0.994969 6.62143e-05 0
1.00142 8.79623e-05 0
1.00201 0.000105011 0
1.00203 0.000115084 0
1.002 0.000117258 0
1.00197 0.000111495 0
1.00194 9.84971e-05 0
1.00193 7.96135e-05 0
1.00192 5.66966e-05 0
1.00191 3.19199e-05 0
1.00192 7.56857e-06 0
1.00193 -1.41777e-05 0
1.00195 -3.14511e-05 0
1.00197 -4.28725e-05 0
1.00196 -4.7686e-05 0
1.00142 -4.58463e-05 0
0.995309 -3.81455e-05 0
0.942639 -2.6719e-05 0
0.616686 -1.54159e-05 0
-0.617938 3.71774e-05 0
0.616762 3.32325e-07 0
0.941508 3.73902e-05 0
0.99498 5.3845e-05 0
1.00143 7.0154e-05 0
1.00203 8.31715e-05 0
1.00206 9.10153e-05 0
1.00204 9.29505e-05 0
1.00201 8.89258e-05 0
1.002 7.94476e-05 0
1.00198 6.55046e-05 0
1.00197 4.84638e-05 0
1.00197 2.99345e-05 0
1.00197 1.16126e-05 0
1.00198 -4.88258e-06 0
1.002 -1.81615e-05 0
1.00201 -2.71969e-05 0
1.00199 -3.14228e-05 0
1.00145 -3.08019e-05 0
0.995331 -2.59428e-05 0
0.942661 -1.85813e-05 0
0.616704 -1.18181e-05 0
-0.617949 3.2121e-05 0
0.616773 2.87098e-07 0
0.941523 3.23184e-05 0
0.994995 4.41083e-05 0
1.00145 5.63376e-05 0
1.00206 6.63249e-05 0
1.00209 7.24777e-05 0
1.00207 7.42017e-05 0
1.00205 7.14416e-05 0
1.00204 6.4561e-05 0
1.00203 5.42843e-05 0
1.00202 4.16193e-05 0
1.00202 2.77568e-05 0
1.00202 1.39543e-05 0
1.00203 1.41506e-06 0
1.00204 -8.82717e-06 0
1.00205 -1.60059e-05 0
1.00202 -1.96956e-05 0
1.00147 -1.98646e-05 0
0.995355 -1.69868e-05 0
0.942685 -1.25095e-05 0
0.616724 -9.02221e-06 0
-0.617962 2.79022e-05 0
0.616785 2.49372e-07 0
0.941541 2.80882e-05 0
0.995013 3.6341e-05 0
1.00147 4.55082e-05 0
1.00208 5.32185e-05 0
1.00212 5.80904e-05 0
1.0021 5.9636e-05 0
1.00209 5.77995e-05 0
1.00208 5.28412e-05 0
1.00207 4.52911e-05 0
1.00206 3.58917e-05 0
1.00206 2.55237e-05 0
1.00206 1.51192e-05 0
1.00207 5.57191e-06 0
1.00207 -2.34828e-06 0
1.00208 -8.06855e-06 0
1.00205 -1.12677e-05 0
1.0015 -1.19186e-05 0
0.99538 -1.03967e-05 0
0.942711 -7.943e-06 0
0.616744 -6.8093e-06 0
-0.617977 2.43129e-05 0
0.6168 2.17284e-07 0
0.941561 2.44904e-05 0
0.995032 3.00513e-05 0
1.00149 3.69197e-05 0
1.0021 4.29205e-05 0
1.00214 4.68252e-05 0
1.00213 4.82259e-05 0
1.00212 4.70684e-05 0
1.00211 4.35381e-05 0
1.00211 3.80223e-05 0
1.0021 3.10677e-05 0
1.0021 2.3325e-05 0
1.0021 1.54853e-05 0
1.0021 8.2124e-06 0
1.00211 2.08009e-06 0
1.00211 -2.48268e-06 0
1.00207 -5.23241e-06 0
1.00153 -6.14598e-06 0
0.995405 -5.52737e-06 0
0.942738 -4.47166e-06 0
0.616765 -5.01991e-06 0
-0.617993 2.11988e-05 0
0.616816 1.89452e-07 0
0.941581 2.13695e-05 0
0.995051 2.48739e-05 0
1.00151 3.00173e-05 0
1.00213 3.47373e-05 0
1.00217 3.79151e-05 0
1.00216 3.92032e-05 0
1.00215 3.85499e-05 0
1.00215 3.60864e-05 0
1.00214 3.20953e-05 0
1.00213 2.69787e-05 0
1.00213 2.12173e-05 0
1.00213 1.53232e-05 0
1.00213 9.78996e-06 0
1.00214 5.04548e-06 0
1.00214 1.41173e-06 0
1.0021 -9.25872e-07 0
1.00155 -1.94786e-06 0
0.99543 -1.90674e-06 0
0.942764 -1.79575e-06 0
0.616786 -3.53793e-06 0
-0.618009 1.8445e-05 0
0.616832 1.64846e-07 0
0.941603 1.86102e-05 0
0.995071 2.05373e-05 0
1.00153 2.4388e-05 0
1.00215 2.81516e-05 0
1.00219 3.07872e-05 0
1.00219 3.19927e-05 0
1.00218 3.17192e-05 0
1.00217 3.00591e-05 0
1.00217 2.72178e-05 0
1.00216 2.34909e-05 0
1.00216 1.92335e-05 0
1.00216 1.48249e-05 0
1.00216 1.06324e-05 0
1.00216 6.9755e-06 0
1.00217 4.09648e-06 0
1.00213 2.1372e-06 0
1.00158 1.11374e-06 0
0.995454 8.10412e-07 0
0.942791 3.03561e-07 0
0.616808 -2.27889e-06 0
-0.618026 1.5966e-05 0
0.616849 1.42701e-07 0
0.941624 1.61266e-05 0
0.99509 1.68388e-05 0
1.00155 1.97235e-05 0
1.00217 2.27769e-05 0
1.00221 2.50128e-05 0
1.00221 2.61629e-05 0
1.0022 2.61816e-05 0
1.0022 2.51329e-05 0
1.00219 2.31661e-05 0
1.00219 2.04979e-05 0
1.00219 1.73906e-05 0
1.00219 1.41255e-05 0
1.00219 1.09757e-05 0
1.00219 8.18037e-06 0
1.00219 5.9224e-06 0
1.00215 4.31085e-06 0
1.0016 3.35863e-06 0
0.995478 2.87611e-06 0
0.942816 1.9859e-06 0
0.616828 -1.18144e-06 0
-0.618043 1.36981e-05 0
0.616865 1.22445e-07 0
0.941644 1.38545e-05 0
0.995109 1.36272e-05 0
1.00157 1.57936e-05 0
1.00219 1.83244e-05 0
1.00223 2.02707e-05 0
1.00223 2.13899e-05 0
1.00223 2.16394e-05 0
1.00222 2.10628e-05 0
1.00222 1.97681e-05 0
1.00222 1.79144e-05 0
1.00221 1.5695e-05 0
1.00221 1.33185e-05 0
1.00221 1.09885e-05 0
1.00221 8.88427e-06 0
1.00221 7.14425e-06 0
1.00217 5.85277e-06 0
1.00162 5.01983e-06 0
0.9955 4.47409e-06 0
0.94284 3.36751e-06 0
0.616849 -2.01057e-07 0
-0.61806 1.15932e-05 0
0.616882 1.03649e-07 0
0.941664 1.17458e-05 0
0.995126 1.07894e-05 0
1.00159 1.24258e-05 0
1.00221 1.45772e-05 0
1.00225 1.63196e-05 0
1.00225 1.74296e-05 0
1.00225 1.78674e-05 0
1.00224 1.76621e-05 0
1.00224 1.68914e-05 0
1.00224 1.56717e-05 0
1.00224 1.41458e-05 0
1.00224 1.24682e-05 0
1.00224 1.07909e-05 0
1.00224 9.24858e-06 0
1.00223 7.94643e-06 0
1.00219 6.9501e-06 0
1.00164 6.26687e-06 0
0.995521 5.73804e-06 0
0.942864 4.53294e-06 0
0.616868 6.94501e-07 0
-0.618076 9.61565e-06 0
0.616898 8.59925e-08 0
0.941684 9.76459e-06 0
0.995143 8.24047e-06 0
1.0016 9.49051e-06 0
1.00222 1.13726e-05 0
1.00227 1.29779e-05 0
1.00227 1.40979e-05 0
1.00227 1.46951e-05 0
1.00226 1.47883e-05 0
1.00226 1.44331e-05 0
1.00226 1.37146e-05 0
1.00226 1.27379e-05 0
1.00226 1.16177e-05 0
1.00226 1.04676e-05 0
1.00226 9.38885e-06 0
1.00225 8.462e-06 0
1.00221 7.73835e-06 0
1.00166 7.22275e-06 0
0.99554 6.7651e-06 0
0.942886 5.54359e-06 0
0.616887 1.5286e-06 0
-0.618092 7.73826e-06 0
0.616914 6.92325e-08 0
0.941702 7.8837e-06 0
0.995159 5.9164e-06 0
1.00162 6.8904e-06 0
1.00224 8.58772e-06 0
1.00228 1.01085e-05 0
1.00228 1.12554e-05 0
1.00228 1.19929e-05 0
1.00228 1.23324e-05 0
1.00228 1.23135e-05 0
1.00228 1.19981e-05 0
1.00227 1.14636e-05 0
1.00227 1.07951e-05 0
1.00227 1.00775e-05 0
1.00227 9.38745e-06 0
1.00227 8.78658e-06 0
1.00223 8.31542e-06 0
1.00168 7.97658e-06 0
0.995558 7.62573e-06 0
0.942906 6.44403e-06 0
0.616905 2.31816e-06 0
-0.618108 5.94057e-06 0
0.616929 5.31856e-08 0
0.941719 6.08257e-06 0
0.995173 3.7689e-06 0
1.00163 4.55183e-06 0
1.00225 6.12999e-06 0
1.0023 7.60782e-06 0
1.0023 8.79619e-06 0
1.0023 9.66176e-06 0
1.00229 1.02105e-05 0
1.00229 1.04703e-05 0
1.00229 1.04859e-05 0
1.00229 1.03142e-05 0
1.00229 1.00184e-05 0
1.00229 9.66185e-06 0
1.00229 9.30277e-06 0
1.00229 8.98872e-06 0
1.00225 8.75183e-06 0
1.00169 8.59279e-06 0
0.995575 8.371e-06 0
0.942925 7.2666e-06 0
0.616923 3.07547e-06 0
-0.618123 4.20695e-06 0
0.616944 3.7712e-08 0
0.941735 4.34557e-06 0
0.995185 1.76132e-06 0
1.00164 2.419e-06 0
1.00226 3.92906e-06 0
1.00231 5.3969e-06 0
1.00231 6.6398e-06 0
1.00231 7.62606e-06 0
1.00231 8.35791e-06 0
1.00231 8.85458e-06 0
1.0023 9.14827e-06 0
1.0023 9.28052e-06 0
1.0023 9.29808e-06 0
1.0023 9.24853e-06 0
1.0023 9.17598e-06 0
1.0023 9.11736e-06 0
1.00226 9.09838e-06 0
1.00171 9.11797e-06 0
0.995589 9.03795e-06 0
0.942943 8.03484e-06 0
0.616939 3.80949e-06 0
-0.618137 2.52542e-06 0
0.616958 2.27044e-08 0
0.941749 2.66068e-06 0
0.995197 -1.34375e-07 0
1.00165 4.49364e-07 0
1.00227 1.93132e-06 0
1.00232 3.41564e-06 0
1.00232 4.7245e-06 0
1.00232 5.82761e-06 0
1.00232 6.72451e-06 0
1.00232 7.42806e-06 0
1.00232 7.96108e-06 0
1.00232 8.35369e-06 0
1.00232 8.64036e-06 0
1.00231 8.85663e-06 0
1.00231 9.03608e-06 0
1.00231 9.20752e-06 0
1.00227 9.39163e-06 0
1.00172 9.58588e-06 0
0.995602 9.65354e-06 0
0.942959 8.76596e-06 0
0.616955 4.52683e-06 0
-0.61815 8.86676e-07 0
0.616971 8.07951e-09 0
0.941762 1.0186e-06 0
0.995207 -1.93972e-06 0
1.00166 -1.3897e-06 0
1.00228 9.57072e-08 0
1.00233 1.6179e-06 0
1.00233 3.00287e-06 0
1.00233 4.22147e-06 0
1.00233 5.27131e-06 0
1.00233 6.16048e-06 0
1.00233 6.90474e-06 0
1.00233 7.52561e-06 0
1.00233 8.04823e-06 0
1.00232 8.49903e-06 0
1.00232 8.90355e-06 0
1.00232 9.28431e-06 0
1.00228 9.65811e-06 0
1.00173 1.00211e-05 0
0.995613 1.02376e-05 0
0.942973 9.4727e-06 0
0.616969 5.23246e-06 0
-0.618163 -7.16568e-07 0
0.616983 -6.22796e-09 0
0.941774 -5.87969e-07 0
0.995215 -3.67149e-06 0
1.00167 -3.12344e-06 0
1.00229 -1.60952e-06 0
1.00234 -3.19655e-08 0
1.00234 1.43819e-06 0
1.00234 2.77274e-06 0
1.00234 3.96784e-06 0
1.00234 5.02794e-06 0
1.00233 5.9634e-06 0
1.00233 6.7891e-06 0
1.00233 7.52303e-06 0
1.00233 8.18458e-06 0
1.00233 8.79303e-06 0
1.00233 9.36606e-06 0
1.00229 9.91735e-06 0
1.00174 1.0442e-05 0
0.995623 1.08048e-05 0
0.942986 1.01647e-05 0
0.616983 5.93023e-06 0
-0.618175 -2.29015e-06 0
0.616995 -2.02701e-08 0
0.941784 -2.16486e-06 0
0.995222 -5.3429e-06 0
1.00168 -4.77165e-06 0
1.0023 -3.20917e-06 0
1.00234 -1.5618e-06 0
1.00235 1.78256e-09 0
1.00234 1.45412e-06 0
1.00234 2.7902e-06 0
1.00234 4.01158e-06 0
1.00234 5.12434e-06 0
1.00234 6.13814e-06 0
1.00234 7.06528e-06 0
1.00234 7.91961e-06 0
1.00234 8.71544e-06 0
1.00234 9.46655e-06 0
1.0023 1.01842e-05 0
1.00174 1.08625e-05 0
0.995631 1.13667e-05 0
0.942998 1.08496e-05 0
0.616996 6.62326e-06 0
-0.618186 -3.83882e-06 0
0.617006 -3.40896e-08 0
0.941793 -3.71684e-06 0
0.995227 -6.96459e-06 0