# vtk DataFile Version 3.0
vtk output
ASCII
DATASET UNSTRUCTURED_GRID
POINTS 1913 double
0.045977 0 0
0.045977 0.0952381 0
0.045977 0.142857 0
0.045977 0.190476 0
0.045977 0.238095 0
0.045977 0.285714 0
0.045977 0.333333 0
0.045977 0.380952 0
0.045977 0.428571 0
0.045977 0.47619 0
0.045977 0.52381 0
0.045977 0.571429 0
0.045977 0.619048 0
0.045977 0.666667 0
0.045977 0.714286 0
0.045977 0.761905 0
0.045977 0.809524 0
0.045977 0.857143 0
0.045977 0.904762 0
0.045977 0.952381 0
0.045977 1 0
0.091954 0 0
0.091954 0.047619 0
0.091954 0.0952381 0
0.091954 0.142857 0
0.091954 0.190476 0
0.091954 0.238095 0
0.091954 0.285714 0
0.091954 0.333333 0
0.091954 0.380952 0
0.091954 0.428571 0
0.091954 0.47619 0
0.091954 0.52381 0
0.091954 0.571429 0
0.091954 0.619048 0
0.091954 0.666667 0
0.091954 0.714286 0
0.091954 0.761905 0
0.091954 0.809524 0
0.091954 0.857143 0
0.091954 0.904762 0
0.091954 0.952381 0
0.091954 1 0
0.137931 0 0
0.137931 0.047619 0
0.137931 0.0952381 0
0.137931 0.142857 0
0.137931 0.190476 0
0.137931 0.238095 0
0.137931 0.285714 0
0.137931 0.333333 0
0.137931 0.380952 0
0.137931 0.428571 0
0.137931 0.47619 0
0.137931 0.52381 0
0.137931 0.571429 0
0.137931 0.619048 0
0.137931 0.666667 0
0.137931 0.714286 0
0.137931 0.761905 0
0.137931 0.809524 0
0.137931 0.857143 0
0.137931 0.904762 0
0.137931 0.952381 0
0.137931 1 0
0.183908 0 0
0.183908 0.047619 0
0.183908 0.0952381 0
0.183908 0.142857 0
0.183908 0.190476 0
0.183908 0.238095 0
0.183908 0.285714 0
0.183908 0.333333 0
0.183908 0.380952 0
0.183908 0.428571 0
0.183908 0.47619 0
0.183908 0.52381 0
0.183908 0.571429 0
0.183908 0.619048 0
0.183908 0.666667 0
0.183908 0.714286 0
0.183908 0.761905 0
0.183908 0.809524 0
0.183908 0.857143 0
0.183908 0.904762 0
0.183908 0.952381 0
0.183908 1 0
0.229885 0 0
0.229885 0.047619 0
0.229885 0.0952381 0
0.229885 0.142857 0
0.229885 0.190476 0
0.229885 0.238095 0
0.229885 0.285714 0
0.229885 0.333333 0
0.229885 0.380952 0
0.229885 0.428571 0
0.229885 0.47619 0
0.229885 0.52381 0
0.229885 0.571429 0
0.229885 0.619048 0
0.229885 0.666667 0
0.229885 0.714286 0
0.229885 0.761905 0
0.229885 0.809524 0
0.229885 0.857143 0
0.229885 0.904762 0
0.229885 0.952381 0
0.229885 1 0
0.275862 0 0
0.275862 0.047619 0
0.275862 0.0952381 0
0.275862 0.142857 0
0.275862 0.190476 0
0.275862 0.238095 0
0.275862 0.285714 0
0.275862 0.333333 0
0.275862 0.380952 0
0.275862 0.428571 0
0.275862 0.47619 0
0.275862 0.52381 0
0.275862 0.571429 0
0.275862 0.619048 0
0.275862 0.666667 0
0.275862 0.714286 0
0.275862 0.761905 0
0.275862 0.809524 0
0.275862 0.857143 0
0.275862 0.904762 0
0.275862 0.952381 0
0.275862 1 0
0.321839 0 0
0.321839 0.047619 0
0.321839 0.0952381 0
0.321839 0.142857 0
0.321839 0.190476 0
0.321839 0.238095 0
0.321839 0.285714 0
0.321839 0.333333 0
0.321839 0.380952 0
0.321839 0.428571 0
0.321839 0.47619 0
0.321839 0.52381 0
0.321839 0.571429 0
0.321839 0.619048 0
0.321839 0.666667 0
0.321839 0.714286 0
0.321839 0.761905 0
0.321839 0.809524 0
0.321839 0.857143 0
0.321839 0.904762 0
0.321839 0.952381 0
0.321839 1 0
0.367816 0 0
0.367816 0.047619 0
0.367816 0.0952381 0
0.367816 0.142857 0
0.367816 0.190476 0
0.367816 0.238095 0
0.367816 0.285714 0
0.367816 0.333333 0
0.367816 0.380952 0
0.367816 0.428571 0
0.367816 0.47619 0
0.367816 0.52381 0
0.367816 0.571429 0
0.367816 0.619048 0
0.367816 0.666667 0
0.367816 0.714286 0
0.367816 0.761905 0
0.367816 0.809524 0
0.367816 0.857143 0
0.367816 0.904762 0
0.367816 0.952381 0
0.367816 1 0
0.413793 0 0
0.413793 0.047619 0
0.413793 0.0952381 0
0.413793 0.142857 0
0.413793 0.190476 0
0.413793 0.238095 0
0.413793 0.285714 0
0.413793 0.333333 0
0.413793 0.380952 0
0.413793 0.428571 0
0.413793 0.47619 0
0.413793 0.52381 0
0.413793 0.571429 0
0.413793 0.619048 0
0.413793 0.666667 0
0.413793 0.714286 0
0.413793 0.761905 0
0.413793 0.809524 0
0.413793 0.857143 0
0.413793 0.904762 0
0.413793 0.952381 0
0.413793 1 0
0.45977 0 0
0.45977 0.047619 0
0.45977 0.0952381 0
0.45977 0.142857 0
0.45977 0.190476 0
0.45977 0.238095 0
0.45977 0.285714 0
0.45977 0.333333 0
0.45977 0.380952 0
0.45977 0.428571 0
0.45977 0.47619 0
0.45977 0.52381 0
0.45977 0.571429 0
0.45977 0.619048 0
0.45977 0.666667 0
0.45977 0.714286 0
0.45977 0.761905 0
0.45977 0.809524 0
0.45977 0.857143 0
0.45977 0.904762 0
0.45977 0.952381 0
0.45977 1 0
0.505747 0 0
0.505747 0.047619 0
0.505747 0.0952381 0
0.505747 0.142857 0
0.505747 0.190476 0
0.505747 0.238095 0
0.505747 0.285714 0
0.505747 0.333333 0
0.505747 0.380952 0
0.505747 0.428571 0
0.505747 0.47619 0
0.505747 0.52381 0
0.505747 0.571429 0
0.505747 0.619048 0
0.505747 0.666667 0
0.505747 0.714286 0
0.505747 0.761905 0
0.505747 0.809524 0
0.505747 0.857143 0
0.505747 0.904762 0
0.505747 0.952381 0
0.505747 1 0
0.551724 0 0
0.551724 0.047619 0
0.551724 0.0952381 0
0.551724 0.142857 0
0.551724 0.190476 0
0.551724 0.238095 0
0.551724 0.285714 0
0.551724 0.333333 0
0.551724 0.380952 0
0.551724 0.428571 0
0.551724 0.47619 0
0.551724 0.52381 0
0.551724 0.571429 0
0.551724 0.619048 0
0.551724 0.666667 0
0.551724 0.714286 0
0.551724 0.761905 0
0.551724 0.809524 0
0.551724 0.857143 0
0.551724 0.904762 0
0.551724 0.952381 0
0.551724 1 0
0.597701 0 0
0.597701 0.047619 0
0.597701 0.0952381 0
0.597701 0.142857 0
0.597701 0.190476 0
0.597701 0.238095 0
0.597701 0.285714 0
0.597701 0.333333 0
0.597701 0.380952 0
0.597701 0.428571 0
0.597701 0.47619 0
0.597701 0.52381 0
0.597701 0.571429 0
0.597701 0.619048 0
0.597701 0.666667 0
0.597701 0.714286 0
0.597701 0.761905 0
0.597701 0.809524 0
0.597701 0.857143 0
0.597701 0.904762 0
0.597701 0.952381 0
0.597701 1 0
0.643678 0 0
0.643678 0.047619 0
0.643678 0.0952381 0
0.643678 0.142857 0
0.643678 0.190476 0
0.643678 0.238095 0
0.643678 0.285714 0
0.643678 0.333333 0
0.643678 0.380952 0
0.643678 0.428571 0
0.643678 0.47619 0
0.643678 0.52381 0
0.643678 0.571429 0
0.643678 0.619048 0
0.643678 0.666667 0
0.643678 0.714286 0
0.643678 0.761905 0
0.643678 0.809524 0
0.643678 0.857143 0
0.643678 0.904762 0
0.643678 0.952381 0
0.643678 1 0
0.689655 0 0
0.689655 0.047619 0
0.689655 0.0952381 0
0.689655 0.142857 0
0.689655 0.190476 0
0.689655 0.238095 0
0.689655 0.285714 0
0.689655 0.333333 0
0.689655 0.380952 0
0.689655 0.428571 0
0.689655 0.47619 0
0.689655 0.52381 0
0.689655 0.571429 0
0.689655 0.619048 0
0.689655 0.666667 0
0.689655 0.714286 0
0.689655 0.761905 0
0.689655 0.809524 0
0.689655 0.857143 0
0.689655 0.904762 0
0.689655 0.952381 0
0.689655 1 0
0.735632 0 0
0.735632 0.047619 0
0.735632 0.0952381 0
0.735632 0.142857 0
0.735632 0.190476 0
0.735632 0.238095 0
0.735632 0.285714 0
0.735632 0.333333 0
0.735632 0.380952 0
0.735632 0.428571 0
0.735632 0.47619 0
0.735632 0.52381 0
0.735632 0.571429 0
0.735632 0.619048 0
0.735632 0.666667 0
0.735632 0.714286 0
0.735632 0.761905 0
0.735632 0.809524 0
0.735632 0.857143 0
0.735632 0.904762 0
0.735632 0.952381 0
0.735632 1 0
0.781609 0 0
0.781609 0.047619 0
0.781609 0.0952381 0
0.781609 0.142857 0
0.781609 0.190476 0
0.781609 0.238095 0
0.781609 0.285714 0
0.781609 0.333333 0
0.781609 0.380952 0
0.781609 0.428571 0
0.781609 0.47619 0
0.781609 0.52381 0
0.781609 0.571429 0
0.781609 0.619048 0
0.781609 0.666667 0
0.781609 0.714286 0
0.781609 0.761905 0
0.781609 0.809524 0
0.781609 0.857143 0
0.781609 0.904762 0
0.781609 0.952381 0
0.781609 1 0
0.827586 0 0
0.827586 0.047619 0
0.827586 0.0952381 0
0.827586 0.142857 0
0.827586 0.190476 0
0.827586 0.238095 0
0.827586 0.285714 0
0.827586 0.333333 0
0.827586 0.380952 0
0.827586 0.428571 0
0.827586 0.47619 0
0.827586 0.52381 0
0.827586 0.571429 0
0.827586 0.619048 0
0.827586 0.666667 0
0.827586 0.714286 0
0.827586 0.761905 0
0.827586 0.809524 0
0.827586 0.857143 0
0.827586 0.904762 0
0.827586 0.952381 0
0.827586 1 0
0.873563 0 0
0.873563 0.047619 0
0.873563 0.0952381 0
0.873563 0.142857 0
0.873563 0.190476 0
0.873563 0.238095 0
0.873563 0.285714 0
0.873563 0.333333 0
0.873563 0.380952 0
0.873563 0.428571 0
0.873563 0.47619 0
0.873563 0.52381 0
0.873563 0.571429 0
0.873563 0.619048 0
0.873563 0.666667 0
0.873563 0.714286 0
0.873563 0.761905 0
0.873563 0.809524 0
0.873563 0.857143 0
0.873563 0.904762 0
0.873563 0.952381 0
0.873563 1 0
0.91954 0 0
0.91954 0.047619 0
0.91954 0.0952381 0
0.91954 0.142857 0
0.91954 0.190476 0
0.91954 0.238095 0
0.91954 0.285714 0
0.91954 0.333333 0
0.91954 0.380952 0
0.91954 0.428571 0
0.91954 0.47619 0
0.91954 0.52381 0
0.91954 0.571429 0
0.91954 0.619048 0
0.91954 0.666667 0
0.91954 0.714286 0
0.91954 0.761905 0
0.91954 0.809524 0
0.91954 0.857143 0
0.91954 0.904762 0
0.91954 0.952381 0
0.91954 1 0
0.965517 0 0
0.965517 0.047619 0
0.965517 0.0952381 0
0.965517 0.142857 0
0.965517 0.190476 0
0.965517 0.238095 0
0.965517 0.285714 0
0.965517 0.333333 0
0.965517 0.380952 0
0.965517 0.428571 0
0.965517 0.47619 0
0.965517 0.52381 0
0.965517 0.571429 0
0.965517 0.619048 0
0.965517 0.666667 0
0.965517 0.714286 0
0.965517 0.761905 0
0.965517 0.809524 0
0.965517 0.857143 0
0.965517 0.904762 0
0.965517 0.952381 0
0.965517 1 0
1.01149 0 0
1.01149 0.047619 0
1.01149 0.0952381 0
1.01149 0.142857 0
1.01149 0.190476 0
1.01149 0.238095 0
1.01149 0.285714 0
1.01149 0.333333 0
1.01149 0.380952 0
1.01149 0.428571 0
1.01149 0.47619 0
1.01149 0.52381 0
1.01149 0.571429 0
1.01149 0.619048 0
1.01149 0.666667 0
1.01149 0.714286 0
1.01149 0.761905 0
1.01149 0.809524 0
1.01149 0.857143 0
1.01149 0.904762 0
1.01149 0.952381 0
1.01149 1 0
1.05747 0 0
1.05747 0.047619 0
1.05747 0.0952381 0
1.05747 0.142857 0
1.05747 0.190476 0
1.05747 0.238095 0
1.05747 0.285714 0
1.05747 0.333333 0
1.05747 0.380952 0
1.05747 0.428571 0
1.05747 0.47619 0
1.05747 0.52381 0
1.05747 0.571429 0
1.05747 0.619048 0
1.05747 0.666667 0
1.05747 0.714286 0
1.05747 0.761905 0
1.05747 0.809524 0
1.05747 0.857143 0
1.05747 0.904762 0
1.05747 0.952381 0
1.05747 1 0
1.10345 0 0
1.10345 0.047619 0
1.10345 0.0952381 0
1.10345 0.142857 0
1.10345 0.190476 0
1.10345 0.238095 0
1.10345 0.285714 0
1.10345 0.333333 0
1.10345 0.380952 0
1.10345 0.428571 0
1.10345 0.47619 0
1.10345 0.52381 0
1.10345 0.571429 0
[...]
POINT_DATA 1913
VECTORS velocity[m/s] double
-0 0.209455 0
0 0.209455 0
0 0.209378 0
0 0.180962 0
0 0.150626 0
0 0.121864 0
0 0.0948398 0
0 0.0692146 0
0 0.0445707 0
0 0.0204936 0
0 -0.00341661 0
0 -0.0275605 0
0 -0.0523662 0
0 -0.078325 0
0 -0.106039 0
0 -0.136286 0
0 -0.17011 0
0 -0.208936 0
0 -0.254266 0
0 -0.302742 0
0 -0.309893 0
-0.872554 0.185232 0
0.872554 0.00163375 0
1.07486 0.185232 0
1.10222 0.208817 0
1.10408 0.184417 0
1.10256 0.153011 0
1.10088 0.123215 0
1.09953 0.0956357 0
1.09858 0.0697001 0
1.09803 0.0448455 0
1.09787 0.020599 0
1.0981 -0.0034636 0
1.09874 -0.0277551 0
1.09985 -0.0527125 0
1.10154 -0.0788381 0
1.10399 -0.106757 0
1.10744 -0.137311 0
1.11227 -0.171681 0
1.11855 -0.21126 0
1.12159 -0.255079 0
1.08169 -0.286326 0
0.775579 -0.235249 0
-0.695287 0.144678 0
0.695287 0.0012961 0
1.05209 0.144678 0
1.12578 0.189898 0
1.1344 0.178656 0
1.13133 0.151202 0
1.12751 0.122248 0
1.12457 0.0949251 0
1.12258 0.0692012 0
1.12144 0.044564 0
1.12111 0.020536 0
1.12155 -0.0032999 0
1.12283 -0.0273385 0
1.12507 -0.0519907 0
1.1285 -0.0777237 0
1.13349 -0.105113 0
1.14063 -0.134899 0
1.15049 -0.16788 0
1.16086 -0.203704 0
1.15176 -0.235366 0
1.03237 -0.234791 0
0.548443 -0.14634 0
-0.556849 0.105545 0
0.556849 0.000944873 0
1.00843 0.105545 0
1.13664 0.161748 0
1.16091 0.164682 0
1.15928 0.144584 0
1.15389 0.118617 0
1.14941 0.092627 0
1.14637 0.0677275 0
1.14464 0.0437466 0
1.14412 0.0203097 0
1.14476 -0.0029457 0
1.14664 -0.0263642 0
1.14992 -0.0502976 0
1.15495 -0.0751338 0
1.16225 -0.101319 0
1.17247 -0.129301 0
1.18508 -0.159008 0
1.19143 -0.187589 0
1.15121 -0.203122 0
0.946973 -0.176839 0
0.407149 -0.0836981 0
-0.455855 0.0738517 0
0.455855 0.000660518 0
0.954164 0.0738517 0
1.1338 0.132238 0
1.18031 0.146254 0
1.18435 0.13429 0
1.17898 0.112642 0
1.17345 0.0888925 0
1.16952 0.0653785 0
1.16727 0.0424503 0
1.16657 0.0199334 0
1.16737 -0.00243522 0
1.16974 -0.0249222 0
1.1739 -0.0477963 0
1.18023 -0.0713358 0
1.18927 -0.0958018 0
1.20116 -0.121229 0
1.21267 -0.146518 0
1.20643 -0.166694 0
1.12583 -0.16794 0
0.857043 -0.128098 0
0.326337 -0.0478505 0
-0.385188 0.0504912 0
0.385188 0.00045122 0
0.897791 0.0504912 0
1.12027 0.105562 0
1.19186 0.126702 0
1.20525 0.121993 0
1.20191 0.105061 0
1.19615 0.0840842 0
1.19166 0.0623558 0
1.18901 0.0407806 0
1.18817 0.0194371 0
1.18908 -0.00180859 0
1.19183 -0.02313 0
1.19663 -0.0447017 0
1.20385 -0.0666799 0
1.21382 -0.089119 0
1.22557 -0.111616 0
1.23215 -0.132157 0
1.20763 -0.144501 0
1.08736 -0.135531 0
0.779562 -0.0918619 0
0.280137 -0.0286841 0
-0.336874 0.0343593 0
0.336874 0.000306835 0
0.844619 0.0343593 0
1.09986 0.0833302 0
1.19641 0.108154 0
1.2216 0.109159 0
1.22217 0.0966847 0
1.21713 0.0786423 0
1.21249 0.0589084 0
1.20962 0.038869 0
1.20868 0.0188628 0
1.20967 -0.00110561 0
1.21266 -0.0211131 0
1.21785 -0.0412416 0
1.22552 -0.0615286 0
1.23554 -0.0818272 0
1.24541 -0.101338 0
1.24407 -0.117377 0
1.19897 -0.123288 0
1.0452 -0.108135 0
0.718563 -0.0663239 0
0.252442 -0.0183287 0
-0.303996 0.0237109 0
0.303996 0.000211595 0
0.797337 0.0237109 0
1.07589 0.0656905 0
1.19544 0.0916709 0
1.23365 0.0967924 0
1.23959 0.0881838 0
1.23618 0.0729739 0
1.23184 0.0552784 0
1.22894 0.0368469 0
1.22796 0.0182542 0
1.22899 -0.000361884 0
1.23209 -0.0189887 0
1.23744 -0.0376251 0
1.24512 -0.0562022 0
1.25438 -0.074394 0
1.26089 -0.0910782 0
1.24978 -0.103165 0
1.18434 -0.104223 0
1.00483 -0.0860233 0
0.672223 -0.0486373 0
0.234745 -0.0124297 0
-0.281307 0.0168563 0
0.281307 0.000150321 0
0.756805 0.0168563 0
1.05081 0.0520978 0
1.19049 0.077593 0
1.24196 0.0854579 0
1.25427 0.0800243 0
1.25327 0.0673946 0
1.24963 0.0516651 0
1.24689 0.0348264 0
1.24594 0.0176502 0
1.24697 0.000392899 0
1.25009 -0.016855 0
1.25537 -0.0340227 0
1.26268 -0.0509516 0
1.27048 -0.0671642 0
1.27256 -0.0812968 0
1.2508 -0.0900858 0
1.16677 -0.0877231 0
0.968733 -0.0686073 0
0.637264 -0.0363651 0
0.222744 -0.00884139 0
-0.265177 0.0124627 0
0.265177 0.000111065 0
0.722779 0.0124627 0
1.02619 0.0417831 0
1.1829 0.0658553 0
1.2472 0.0753966 0
1.26647 0.0724788 0
1.26846 0.0621157 0
1.26589 0.0482112 0
1.26347 0.0328906 0
1.2626 0.0170794 0
1.26363 0.00113529 0
1.26666 -0.0147868 0
1.27172 -0.0305605 0
1.27833 -0.045953 0
1.28413 -0.0603637 0
1.28105 -0.0722645 0
1.24852 -0.0783981 0
1.14831 -0.0737773 0
0.937603 -0.0550541 0
0.610689 -0.0277503 0
0.214208 -0.00652778 0
-0.253251 0.00960292 0
0.253251 8.55288e-05 0
0.694469 0.00960292 0
1.00295 0.033996 0
1.17369 0.0562021 0
1.25002 0.0666445 0
1.27647 0.0656721 0
1.28188 0.0572561 0
1.28068 0.0450042 0
1.27874 0.0310921 0
1.27799 0.0165595 0
1.279 0.00184753 0
1.28189 -0.0128363 0
1.28658 -0.0273217 0
1.29225 -0.0413156 0
1.29562 -0.0541202 0
1.28697 -0.0641094 0
1.24406 -0.0681603 0
1.13024 -0.0621644 0
0.91124 -0.0445553 0
0.590199 -0.0216076 0
0.207905 -0.00496913 0
-0.244062 0.00768433 0
0.244062 6.84072e-05 0
0.670918 0.00768432 0
0.981511 0.0281031 0
1.16361 0.0483165 0
1.25096 0.0591241 0
1.2846 0.0596305 0
1.29371 0.052865 0
1.29412 0.0420863 0
1.29277 0.0294574 0
1.2922 0.0160979 0
1.29318 0.0025168 0
1.29588 -0.0110356 0
1.30009 -0.0243538 0
1.30461 -0.0370952 0
1.30527 -0.048488 0
1.29088 -0.0568631 0
1.23827 -0.0593146 0
1.11323 -0.0525826 0
0.889084 -0.0364231 0
0.574134 -0.0171555 0
0.203108 -0.00388576 0
-0.236709 0.00634745 0
0.236709 5.6484e-05 0
0.651203 0.00634744 0
0.961994 0.0236104 0
1.15317 0.0418874 0
1.25047 0.0527057 0
1.29113 0.0543208 0
1.30412 0.0489444 0
1.30631 0.0394667 0
1.30567 0.0279931 0
1.30531 0.0156944 0
1.30626 0.00313431 0
1.30874 -0.00940083 0
1.31239 -0.0216765 0
1.31561 -0.0333088 0
1.31335 -0.0434716 0
1.29325 -0.0504968 0
1.23177 -0.0517429 0
1.09763 -0.0447186 0
0.870481 -0.0301072 0
0.561322 -0.0138783 0
0.199356 -0.00311542 0
-0.230635 0.00537939 0
0.230635 4.78549e-05 0
0.634535 0.00537938 0
0.944348 0.0201484 0
1.14273 0.0366384 0
1.24891 0.0472436 0
1.29632 0.0496795 0
1.31327 0.0454676 0
1.31739 0.0371331 0
1.31754 0.026692 0
1.31744 0.0153432 0
1.31836 0.00369459 0
1.32059 -0.0079366 0
1.32362 -0.01929 0
1.32542 -0.0299473 0
1.32013 -0.0390443 0
1.29445 -0.0449476 0
1.22499 -0.0453015 0
1.08352 -0.0382811 0
0.854812 -0.0251804 0
0.55093 -0.0114317 0
0.196348 -0.00255789 0
-0.225487 0.00465381 0
0.225487 4.13902e-05 0
0.620276 0.0046538 0
0.928426 0.0174469 0
1.13249 0.0323365 0
1.24656 0.0425957 0
1.30039 0.0456304 0
1.32132 0.0423934 0
1.32747 0.0350608 0
1.3285 0.025539 0
1.32869 0.015036 0
1.32959 0.0041948 0
1.33155 -0.00663923 0
1.33391 -0.0171819 0
1.33421 -0.026985 0
1.32583 -0.0351611 0
1.29479 -0.0401361 0
1.21821 -0.0398425 0
1.07088 -0.0330142 0
0.841537 -0.021316 0
0.542362 -0.0095816 0
0.193878 -0.00214837 0
-0.221034 0.0040939 0
0.221034 3.64034e-05 0
0.607924 0.00409389 0
0.91405 0.0153101 0
1.12258 0.0287913 0
1.24363 0.0386324 0
1.30351 0.042096 0
1.3284 0.0396746 0
1.33666 0.0332196 0
1.33864 0.0245151 0
1.33915 0.014763 0
1.34006 0.00463422 0
1.34173 -0.00549988 0
1.34338 -0.015332 0
1.3421 -0.0243878 0
1.33064 -0.031769 0
1.29451 -0.0359778 0
1.21161 -0.0352252 0
1.05958 -0.0287006 0
0.830207 -0.018266 0
0.535185 -0.0081662 0
0.191804 -0.00184356 0
-0.217116 0.00365115 0
0.217116 3.24612e-05 0
0.597094 0.00365114 0
0.901034 0.0135962 0
1.11308 0.0258496 0
1.24029 0.0352406 0
1.30585 0.0390031 0
1.33463 0.0372639 0
1.34507 0.0315779 0
1.34806 0.0236002 0
1.34893 0.0145148 0
1.34984 0.00501374 0
1.35122 -0.00450664 0
1.35212 -0.0137161 0
1.34923 -0.0221178 0
1.3347 -0.0288123 0
1.29378 -0.0323899 0
1.20531 -0.0313213 0
1.04951 -0.0251598 0
0.820456 -0.0158425 0
0.529081 -0.00707128 0
0.190024 -0.0016138 0
-0.213623 0.00329358 0
0.213623 2.92782e-05 0
0.587492 0.00329357 0
0.889203 0.0122022 0
1.10401 0.0233892 0
1.23665 0.0323236 0
1.30753 0.0362859 0
1.34012 0.0351173 0
1.35277 0.0301058 0
1.35683 0.0227753 0
1.35811 0.0142826 0
1.35903 0.00533549 0
1.36011 -0.00364614 0
1.36023 -0.0123091 0
1.35569 -0.0201369 0
1.33816 -0.0262372 0
1.29275 -0.029295 0
1.19937 -0.028018 0
1.04051 -0.0222435 0
0.811987 -0.0139027 0
0.523812 -0.00621505 0
0.188466 -0.00143835 0
-0.210471 0.00299929 0
0.210471 2.66592e-05 0
0.578891 0.00299929 0
0.878402 0.0110523 0
1.09539 0.0213137 0
1.23283 0.0298003 0
1.30866 0.0338868 0
1.34496 0.033195 0
1.35985 0.0287759 0
1.36503 0.0220233 0
1.36674 0.0140593 0
1.3677 0.00560248 0
1.36848 -0.00290464 0
1.36779 -0.0110861 0
1.36158 -0.0184085 0
1.34111 -0.0239935 0
1.29152 -0.026623 0
1.19379 -0.0252175 0
1.03246 -0.0198312 0
0.804565 -0.0123379 0
0.5192 -0.00553807 0
0.187077 -0.00130251 0
-0.207601 0.00275284 0
0.207601 2.44663e-05 0
0.571116 0.00275283 0
0.868494 0.0100906 0
1.08719 0.0195466 0
1.22888 0.0276032 0
1.30933 0.0317564 0
1.34922 0.0314629 0
1.36637 0.0275648 0
1.37272 0.0213295 0
1.37491 0.013839 0
1.37592 0.00581835 0
1.37638 -0.00226868 0
1.37486 -0.0100237 0
1.36697 -0.0168991 0
1.34365 -0.0220356 0
1.29016 -0.0243121 0
1.18859 -0.0228365 0
1.02522 -0.0178257 0
0.797999 -0.011065 0
0.51511 -0.00499666 0
0.18582 -0.00119576 0
-0.204967 0.00254308 0
0.204967 2.26002e-05 0
0.564031 0.00254308 0
0.859364 0.00927561 0
1.07941 0.018028 0
1.22487 0.0256769 0
1.30961 0.0298529 0
1.35299 0.0298915 0
1.37239 0.0264523 0
1.37995 0.0206817 0
1.38265 0.0136173 0
1.38373 0.00598712 0
1.38387 -0.00172556 0
1.3815 -0.0091005 0
1.37193 -0.0155784 0
1.34585 -0.0203233 0
1.28874 -0.0223082 0
1.18375 -0.0208048 0
1.01869 -0.0161485 0
0.79214 -0.0100203 0
0.51144 -0.00455843 0
0.184665 -0.00111044 0
-0.202533 0.00236189 0
0.202533 2.09885e-05 0
0.557531 0.00236188 0
0.850914 0.00857594 0
1.07203 0.0167104 0
1.22084 0.0239757 0
1.30957 0.0281414 0
1.35631 0.0284562 0
1.37796 0.025422 0
1.38677 0.02007 0
1.39002 0.0133914 0
1.39117 0.00611299 0
1.39099 -0.00126354 0
1.38776 -0.00829734 0
1.37651 -0.0144198 0
1.34776 -0.0188212 0
1.28728 -0.0205648 0
1.17926 -0.0190635 0
1.01278 -0.0147367 0
0.786867 -0.00915474 0
0.508111 -0.00419916 0
0.183593 -0.00104099 0
-0.200273 0.00220323 0
0.200273 1.95775e-05 0
0.551531 0.00220322 0
0.84306 0.00796806 0
1.06501 0.0155565 0
1.21682 0.0224625 0
1.30927 0.0265928 0
1.35924 0.0271368 0
1.38313 0.0244603 0
1.39322 0.0194868 0
1.39705 0.0131591 0
1.39829 0.00620025 0
1.39778 -0.000871973 0
1.39367 -0.00759725 0
1.38076 -0.0134 0
1.34945 -0.0174988 0
1.28583 -0.019042 0
1.17508 -0.0175636 0
1.00739 -0.0135399 0
0.782082 -0.00843049 0
0.505062 -0.00390068 0
0.182588 -0.000983341 0
-0.198165 0.00206264 0
0.198165 1.83272e-05 0
0.545965 0.00206263 0
0.835733 0.00743401 0
1.05834 0.0145369 0
1.21283 0.0211071 0
1.30875 0.0251831 0
1.36182 0.0259165 0
1.38793 0.0235563 0
1.39933 0.0189261 0
1.40377 0.0129196 0
1.40512 0.00625309 0
1.40427 -0.000541294 0
1.39927 -0.0069854 0
1.38472 -0.0124989 0
1.35094 -0.0163299 0
1.28441 -0.0177061 0
1.17119 -0.0162645 0
1.00245 -0.0125175 0
0.777709 -0.00781815 0
0.502245 -0.00364923 0
0.181639 -0.000934507 0
-0.196191 0.00193675 0
0.196191 1.72079e-05 0
0.540779 0.00193674 0
0.828876 0.00696006 0
1.052 0.0136284 0
1.2089 0.0198849 0
1.30804 0.0238925 0
1.3641 0.0247816 0
1.3924 0.0227016 0
1.40513 0.0183837 0
1.4102 0.0126727 0
1.41168 0.00627558 0
1.41049 -0.000263005 0
1.40459 -0.00644893 0
1.38842 -0.0116992 0
1.35226 -0.015292 0
1.28301 -0.0165285 0
1.16758 -0.0151326 0
0.997917 -0.0116373 0
0.773683 -0.00729488 0
0.499624 -0.00343441 0
0.180736 -0.00089229 0
-0.194338 0.00182301 0
0.194338 1.61967e-05 0
0.535929 0.001823 0
0.822437 0.00653565 0
1.04596 0.0128126 0
1.20503 0.0187758 0
1.30718 0.0227048 0
1.36611 0.0237209 0
1.39657 0.0218895 0
1.41064 0.0178564 0
1.41638 0.0124185 0
1.418 0.0062716 0
1.41647 -2.9604e-05 0
1.40966 -0.00597676 0
1.39189 -0.010986 0
1.35346 -0.014366 0
1.28167 -0.0154852 0
1.1642 -0.0141403 0
0.993725 -0.0108731 0
0.769956 -0.00684287 0
0.49717 -0.00324827 0
0.179875 -0.000855074 0
-0.192593 0.00171948 0
0.192593 1.52763e-05 0
0.531379 0.00171947 0
0.816377 0.00615258 0
1.0402 0.012075 0
1.20123 0.0177637 0
1.3062 0.0216066 0
1.36788 0.0227255 0
1.40046 0.0211146 0
1.41589 0.0173422 0
1.42232 0.012158 0
1.42408 0.00624478 0
1.42221 0.000165499 0
1.4145 -0.00555938 0
1.39515 -0.0103469 0
1.35454 -0.0135357 0
1.28037 -0.0145557 0
1.16105 -0.0132646 0
0.989834 -0.0102041 0
0.766486 -0.00644822 0
0.494859 -0.00308478 0
0.179049 -0.000821672 0
-0.190948 0.00162466 0
0.190948 1.44335e-05 0
0.527098 0.00162465 0
0.810659 0.00580443 0
1.03471 0.0114037 0
1.19752 0.0168354 0
1.30512 0.0205869 0
1.36943 0.021788 0
1.4041 0.0203731 0
1.4209 0.0168398 0
1.42802 0.011892 0
1.42995 0.0061985 0
1.42774 0.000328066 0
1.41912 -0.00518863 0
1.39823 -0.00977117 0
1.35552 -0.0127875 0
1.27912 -0.0137232 0
1.15809 -0.0124866 0
0.986207 -0.00961357 0
0.763238 -0.00609998 0
0.492674 -0.0029393 0
0.178256 -0.00079121 0
-0.189393 0.00153739 0
0.189393 1.36578e-05 0
0.523063 0.00153738 0
0.805252 0.00548617 0
1.02947 0.0107895 0
1.1939 0.0159798 0
1.30396 0.0196366 0
1.3708 0.0209023 0
1.40752 0.0196618 0
1.42568 0.0163483 0
1.43352 0.0116219 0
1.43562 0.00613587 0
1.43306 0.000463122 0
1.42355 -0.00485755 0
1.40114 -0.00924966 0
1.35643 -0.0121096 0
1.27793 -0.0129734 0
1.15532 -0.011791 0
0.982815 -0.00908793 0
0.760187 -0.00578958 0
0.4906 -0.00280828 0
0.177492 -0.000763044 0
-0.187922 0.00145673 0
0.187922 1.29409e-05 0
0.51925 0.00145672 0
0.800132 0.00519378 0
1.02445 0.0102249 0
1.19037 0.0151883 0
1.30274 0.0187482 0
1.372 0.0200638 0
1.41072 0.0189784 0
1.43024 0.0158674 0
1.43882 0.0113488 0
1.4411 0.00605973 0
1.4382 0.000575035 0
1.42779 -0.00456021 0
1.40391 -0.0087747 0
1.35726 -0.0114923 0
1.27679 -0.0122942 0
1.15271 -0.0111648 0
0.97963 -0.00861627 0
0.757308 -0.00551021 0
0.488626 -0.00268898 0
0.176756 -0.000736702 0
-0.186528 0.00138194 0
0.186528 1.22762e-05 0
0.515642 0.00138193 0
0.795274 0.00492404 0
1.01966 0.00970362 0
1.18693 0.0144535 0
1.30147 0.0179154 0
1.37304 0.0192683 0
1.41372 0.0183212 0
1.4346 0.0153971 0
1.44393 0.0110743 0
1.44639 0.00597264 0
1.44316 0.000667597 0
1.43186 -0.00429155 0
1.40653 -0.00833974 0
1.35804 -0.0109271 0
1.2757 -0.0116755 0
1.15025 -0.0105974 0
0.976631 -0.00818976 0
0.754584 -0.00525651 0
0.486741 -0.00257926 0
0.176044 -0.000711833 0
-0.185206 0.00131242 0
0.185206 1.16583e-05 0
0.512222 0.0013124 0
0.79066 0.00467433 0
1.01508 0.00922077 0
1.18359 0.0137692 0
1.30016 0.0171331 0
1.37396 0.0185125 0
1.41654 0.0176887 0
1.43878 0.0149375 0
1.44885 0.0107994 0
1.45151 0.00587693 0
1.44795 0.000744092 0
1.43576 -0.00404723 0
1.40903 -0.00793922 0
1.35876 -0.0104071 0
1.27466 -0.0111089 0
1.14792 -0.0100802 0
0.973799 -0.00780123 0
0.751999 -0.00502419 0
0.484938 -0.00247749 0
0.175357 -0.00068818 0
-0.18395 0.00124764 0
0.18395 1.10826e-05 0
0.508976 0.00124763 0
0.78627 0.00444248 0
1.01069 0.00877215 0
1.18034 0.0131304 0
1.29883 0.0163967 0
1.37475 0.0177937 0
1.4192 0.0170798 0
1.44277 0.0144889 0
1.4536 0.0105256 0
1.45647 0.00577466 0
1.45257 0.000807359 0
1.43952 -0.00382359 0
1.41141 -0.00756841 0
1.35944 -0.00992614 0
1.27366 -0.0105873 0
1.14572 -0.00960568 0
0.971118 -0.00744483 0
0.74954 -0.00480983 0
0.48321 -0.00238237 0
0.174693 -0.000665552 0
-0.182756 0.00118719 0
0.182756 1.05455e-05 0
0.505891 0.00118718 0
0.78209 0.00422669 0
1.00648 0.00835427 0
1.17719 0.0125327 0
1.29748 0.0157026 0
1.37544 0.0171095 0
1.4217 0.0164938 0
1.4466 0.0140515 0
1.45819 0.0102539 0
1.46127 0.00566766 0
1.45704 0.00085985 0
1.44314 -0.00361748 0
1.41369 -0.00722329 0
1.36007 -0.00947916 0
1.27271 -0.0101045 0
1.14364 -0.00916793 0
0.968574 -0.00711578 0
0.747197 -0.00461068 0
0.481553 -0.00229289 0
0.17405 -0.000643804 0
-0.18162 0.0011307 0
0.18162 1.00435e-05 0
0.502957 0.00113069 0
0.778105 0.00402546 0
1.00244 0.00796419 0
1.17413 0.0119724 0
1.29612 0.0150474 0
1.37604 0.0164578 0
1.42406 0.0159298 0
1.45027 0.0136259 0
1.46262 0.00998545 0
1.46591 0.00555755 0
1.46137 0.000903675 0
1.44662 -0.00342622 0
1.41586 -0.00690041 0
1.36068 -0.00906178 0
1.27181 -0.00965554 0
1.14165 -0.00876185 0
0.966155 -0.00681015 0
0.744959 -0.00442452 0
0.47996 -0.00220824 0
0.173428 -0.000622829 0
-0.180538 0.00107785 0
0.180538 9.57387e-06 0
0.500162 0.00107783 0
0.774302 0.00383747 0
0.998573 0.00759941 0
1.17116 0.0114465 0
1.29476 0.0144283 0
1.37655 0.0158368 0
1.42628 0.0153873 0
1.45378 0.0132121 0
1.46689 0.00972123 0
1.4704 0.00544575 0
1.46555 0.000940646 0
1.44997 -0.00324753 0
1.41795 -0.00659685 0
1.36125 -0.0086703 0
1.27095 -0.00923601 0
1.13977 -0.00838321 0
0.963852 -0.00652471 0
0.742819 -0.00424954 0
0.47843 -0.00212778 0
0.172827 -0.000602544 0
-0.179507 0.00102835 0
0.179507 9.13405e-06 0
0.497498 0.00102834 0
0.77067 0.0036616 0
0.994858 0.00725776 0
1.16828 0.0109521 0
1.2934 0.0138428 0
1.37698 0.0152449 0
1.42838 0.0148657 0
1.45715 0.0128106 0
1.47102 0.00946207 0
1.47475 0.00533349 0
1.46959 0.000972317 0
1.45321 -0.00307945 0
1.41995 -0.00631009 0
1.3618 -0.00830151 0
1.27012 -0.00884225 0
1.13798 -0.00802846 0
0.961655 -0.00625678 0
0.740771 -0.00408426 0
0.476957 -0.002051 0
0.172245 -0.000582885 0
-0.178523 0.000981956 0
0.178523 8.72178e-06 0
0.494955 0.000981937 0
0.767197 0.00349685 0
0.991292 0.00693733 0
1.16549 0.0104869 0
1.29205 0.0132887 0
1.37735 0.0146808 0
1.43037 0.0143645 0
1.46038 0.0124216 0
1.47501 0.00920871 0
1.47896 0.00522182 0
1.4735 0.00100001 0
1.45633 -0.00292033 0
1.42188 -0.00603799 0
1.36232 -0.00795269 0
1.26934 -0.00847112 0
1.13627 -0.0076946 0
0.959558 -0.00600412 0
0.738807 -0.00392749 0
0.47554 -0.00197746 0
0.171683 -0.000563802 0
-0.177583 0.000938428 0
0.177584 8.33502e-06 0
0.492527 0.000938408 0
0.763876 0.00334236 0
0.987864 0.00663645 0
1.16278 0.0100486 0
1.2907 0.012764 0
1.37765 0.0141429 0
1.43224 0.0138832 0
1.46349 0.0120452 0
1.47886 0.00896176 0
1.48304 0.00511164 0
1.47729 0.00102486 0
1.45934 -0.00276875 0
1.42373 -0.00577869 0
1.36282 -0.00762148 0
1.26859 -0.00811996 0
1.13463 -0.0073791 0
0.957553 -0.00576487 0
0.736925 -0.00377819 0
0.474175 -0.00190684 0
0.171138 -0.000545253 0
-0.176685 0.000897559 0
0.176686 7.9719e-06 0
0.490206 0.000897538 0
0.760695 0.00319732 0
0.98457 0.00635362 0
1.16016 0.00963526 0
1.28937 0.0122668 0
1.3779 0.0136302 0
1.43402 0.0134212 0
1.46646 0.0116816 0
1.48258 0.00872173 0
1.48698 0.00500372 0
1.48095 0.00104781 0
1.46224 -0.0026235 0
1.4255 -0.00553062 0
1.3633 -0.00730587 0
1.26787 -0.00778646 0
1.13308 -0.00707981 0
0.955635 -0.00553744 0
0.735118 -0.00363554 0
0.47286 -0.00183883 0
0.170612 -0.000527202 0
-0.175826 0.000859157 0
0.175827 7.6307e-06 0
0.487986 0.000859135 0
0.757648 0.00306104 0
0.981402 0.00608751 0
1.15762 0.00924525 0
1.28805 0.0117955 0
1.37811 0.0131414 0
1.4357 0.012978 0
1.46932 0.0113307 0
1.48617 0.00848902 0
1.4908 0.00489866 0
1.4845 0.00106965 0
1.46505 -0.00248357 0
1.42722 -0.00529242 0
1.36377 -0.00700411 0
1.26719 -0.00746865 0
1.13159 -0.00679489 0
0.953798 -0.00532052 0
0.733383 -0.00349882 0
0.471594 -0.00177319 0
0.170103 -0.000509621 0
-0.175004 0.000823041 0
0.175005 7.30983e-06 0
0.48586 0.00082302 0
0.754726 0.00293286 0
0.978353 0.00583687 0
1.15516 0.0088769 0
1.28675 0.0113485 0
1.37826 0.0126753 0
1.43729 0.012553 0
1.47207 0.0109925 0
1.48963 0.00826394 0
1.4945 0.00479699 0
1.48793 0.00109105 0
1.46776 -0.00234808 0
1.42887 -0.0050629 0
1.36421 -0.00671468 0
1.26654 -0.00716482 0
1.13016 -0.00652276 0
0.95204 -0.00511295 0
0.731717 -0.00336742 0
0.470374 -0.00170972 0
0.169611 -0.00049248 0
-0.174217 0.000789046 0
0.174217 7.00781e-06 0
0.483823 0.000789024 0
0.751922 0.00281217 0
0.975418 0.00560059 0
1.15277 0.00852875 0
1.28547 0.0109243 0
1.37838 0.0122308 0
1.4388 0.0121457 0
1.4747 0.0106669 0
1.49298 0.00804668 0
1.49808 0.00469908 0
1.49125 0.00111255 0
1.47038 -0.0022163 0
1.43047 -0.00484108 0
1.36465 -0.00643628 0
1.26592 -0.00687349 0
1.1288 -0.00626207 0
0.950354 -0.00491377 0
0.730117 -0.00324082 0
0.469199 -0.00164822 0
0.169136 -0.000475756 0
-0.173462 0.000757015 0
0.173462 6.72323e-06 0
0.481869 0.000756992 0
0.74923 0.00269843 0
0.972591 0.00537763 0
1.15046 0.0081994 0
1.28421 0.0105216 0
1.37846 0.011807 0
1.44022 0.0117554 0