# vtk DataFile Version 3.0
vtk output
ASCII
DATASET UNSTRUCTURED_GRID
POINTS 1913 double
0.045977 0 0
0.045977 0.0952381 0
0.045977 0.142857 0
0.045977 0.190476 0
0.045977 0.238095 0
0.045977 0.285714 0
0.045977 0.333333 0
0.045977 0.380952 0
0.045977 0.428571 0
0.045977 0.47619 0
0.045977 0.52381 0
0.045977 0.571429 0
0.045977 0.619048 0
0.045977 0.666667 0
0.045977 0.714286 0
0.045977 0.761905 0
0.045977 0.809524 0
0.045977 0.857143 0
0.045977 0.904762 0
0.045977 0.952381 0
0.045977 1 0
0.091954 0 0
0.091954 0.047619 0
0.091954 0.0952381 0
0.091954 0.142857 0
0.091954 0.190476 0
0.091954 0.238095 0
0.091954 0.285714 0
0.091954 0.333333 0
0.091954 0.380952 0
0.091954 0.428571 0
0.091954 0.47619 0
0.091954 0.52381 0
0.091954 0.571429 0
0.091954 0.619048 0
0.091954 0.666667 0
0.091954 0.714286 0
0.091954 0.761905 0
0.091954 0.809524 0
0.091954 0.857143 0
0.091954 0.904762 0
0.091954 0.952381 0
0.091954 1 0
0.137931 0 0
0.137931 0.047619 0
0.137931 0.0952381 0
0.137931 0.142857 0
0.137931 0.190476 0
0.137931 0.238095 0
0.137931 0.285714 0
0.137931 0.333333 0
0.137931 0.380952 0
0.137931 0.428571 0
0.137931 0.47619 0
0.137931 0.52381 0
0.137931 0.571429 0
0.137931 0.619048 0
0.137931 0.666667 0
0.137931 0.714286 0
0.137931 0.761905 0
0.137931 0.809524 0
0.137931 0.857143 0
0.137931 0.904762 0
0.137931 0.952381 0
0.137931 1 0
0.183908 0 0
0.183908 0.047619 0
0.183908 0.0952381 0
0.183908 0.142857 0
0.183908 0.190476 0
0.183908 0.238095 0
0.183908 0.285714 0
0.183908 0.333333 0
0.183908 0.380952 0
0.183908 0.428571 0
0.183908 0.47619 0
0.183908 0.52381 0
0.183908 0.571429 0
0.183908 0.619048 0
0.183908 0.666667 0
0.183908 0.714286 0
0.183908 0.761905 0
0.183908 0.809524 0
0.183908 0.857143 0
0.183908 0.904762 0
0.183908 0.952381 0
0.183908 1 0
0.229885 0 0
0.229885 0.047619 0
0.229885 0.0952381 0
0.229885 0.142857 0
0.229885 0.190476 0
0.229885 0.238095 0
0.229885 0.285714 0
0.229885 0.333333 0
0.229885 0.380952 0
0.229885 0.428571 0
0.229885 0.47619 0
0.229885 0.52381 0
0.229885 0.571429 0
0.229885 0.619048 0
0.229885 0.666667 0
0.229885 0.714286 0
0.229885 0.761905 0
0.229885 0.809524 0
0.229885 0.857143 0
0.229885 0.904762 0
0.229885 0.952381 0
0.229885 1 0
0.275862 0 0
0.275862 0.047619 0
0.275862 0.0952381 0
0.275862 0.142857 0
0.275862 0.190476 0
0.275862 0.238095 0
0.275862 0.285714 0
0.275862 0.333333 0
0.275862 0.380952 0
0.275862 0.428571 0
0.275862 0.47619 0
0.275862 0.52381 0
0.275862 0.571429 0
0.275862 0.619048 0
0.275862 0.666667 0
0.275862 0.714286 0
0.275862 0.761905 0
0.275862 0.809524 0
0.275862 0.857143 0
0.275862 0.904762 0
0.275862 0.952381 0
0.275862 1 0
0.321839 0 0
0.321839 0.047619 0
0.321839 0.0952381 0
0.321839 0.142857 0
0.321839 0.190476 0
0.321839 0.238095 0
0.321839 0.285714 0
0.321839 0.333333 0
0.321839 0.380952 0
0.321839 0.428571 0
0.321839 0.47619 0
0.321839 0.52381 0
0.321839 0.571429 0
0.321839 0.619048 0
0.321839 0.666667 0
0.321839 0.714286 0
0.321839 0.761905 0
0.321839 0.809524 0
0.321839 0.857143 0
0.321839 0.904762 0
0.321839 0.952381 0
0.321839 1 0
0.367816 0 0
0.367816 0.047619 0
0.367816 0.0952381 0
0.367816 0.142857 0
0.367816 0.190476 0
0.367816 0.238095 0
0.367816 0.285714 0
0.367816 0.333333 0
0.367816 0.380952 0
0.367816 0.428571 0
0.367816 0.47619 0
0.367816 0.52381 0
0.367816 0.571429 0
0.367816 0.619048 0
0.367816 0.666667 0
0.367816 0.714286 0
0.367816 0.761905 0
0.367816 0.809524 0
0.367816 0.857143 0
0.367816 0.904762 0
0.367816 0.952381 0
0.367816 1 0
0.413793 0 0
0.413793 0.047619 0
0.413793 0.0952381 0
0.413793 0.142857 0
0.413793 0.190476 0
0.413793 0.238095 0
0.413793 0.285714 0
0.413793 0.333333 0
0.413793 0.380952 0
0.413793 0.428571 0
0.413793 0.47619 0
0.413793 0.52381 0
0.413793 0.571429 0
0.413793 0.619048 0
0.413793 0.666667 0
0.413793 0.714286 0
0.413793 0.761905 0
0.413793 0.809524 0
0.413793 0.857143 0
0.413793 0.904762 0
0.413793 0.952381 0
0.413793 1 0
0.45977 0 0
0.45977 0.047619 0
0.45977 0.0952381 0
0.45977 0.142857 0
0.45977 0.190476 0
0.45977 0.238095 0
0.45977 0.285714 0
0.45977 0.333333 0
0.45977 0.380952 0
0.45977 0.428571 0
0.45977 0.47619 0
0.45977 0.52381 0
0.45977 0.571429 0
0.45977 0.619048 0
0.45977 0.666667 0
0.45977 0.714286 0
0.45977 0.761905 0
0.45977 0.809524 0
0.45977 0.857143 0
0.45977 0.904762 0
0.45977 0.952381 0
0.45977 1 0
0.505747 0 0
0.505747 0.047619 0
0.505747 0.0952381 0
0.505747 0.142857 0
0.505747 0.190476 0
0.505747 0.238095 0
0.505747 0.285714 0
0.505747 0.333333 0
0.505747 0.380952 0
0.505747 0.428571 0
0.505747 0.47619 0
0.505747 0.52381 0
0.505747 0.571429 0
0.505747 0.619048 0
0.505747 0.666667 0
0.505747 0.714286 0
0.505747 0.761905 0
0.505747 0.809524 0
0.505747 0.857143 0
0.505747 0.904762 0
0.505747 0.952381 0
0.505747 1 0
0.551724 0 0
0.551724 0.047619 0
0.551724 0.0952381 0
0.551724 0.142857 0
0.551724 0.190476 0
0.551724 0.238095 0
0.551724 0.285714 0
0.551724 0.333333 0
0.551724 0.380952 0
0.551724 0.428571 0
0.551724 0.47619 0
0.551724 0.52381 0
0.551724 0.571429 0
0.551724 0.619048 0
0.551724 0.666667 0
0.551724 0.714286 0
0.551724 0.761905 0
0.551724 0.809524 0
0.551724 0.857143 0
0.551724 0.904762 0
0.551724 0.952381 0
0.551724 1 0
0.597701 0 0
0.597701 0.047619 0
0.597701 0.0952381 0
0.597701 0.142857 0
0.597701 0.190476 0
0.597701 0.238095 0
0.597701 0.285714 0
0.597701 0.333333 0
0.597701 0.380952 0
0.597701 0.428571 0
0.597701 0.47619 0
0.597701 0.52381 0
0.597701 0.571429 0
0.597701 0.619048 0
0.597701 0.666667 0
0.597701 0.714286 0
0.597701 0.761905 0
0.597701 0.809524 0
0.597701 0.857143 0
0.597701 0.904762 0
0.597701 0.952381 0
0.597701 1 0
0.643678 0 0
0.643678 0.047619 0
0.643678 0.0952381 0
0.643678 0.142857 0
0.643678 0.190476 0
0.643678 0.238095 0
0.643678 0.285714 0
0.643678 0.333333 0
0.643678 0.380952 0
0.643678 0.428571 0
0.643678 0.47619 0
0.643678 0.52381 0
0.643678 0.571429 0
0.643678 0.619048 0
0.643678 0.666667 0
0.643678 0.714286 0
0.643678 0.761905 0
0.643678 0.809524 0
0.643678 0.857143 0
0.643678 0.904762 0
0.643678 0.952381 0
0.643678 1 0
0.689655 0 0
0.689655 0.047619 0
0.689655 0.0952381 0
0.689655 0.142857 0
0.689655 0.190476 0
0.689655 0.238095 0
0.689655 0.285714 0
0.689655 0.333333 0
0.689655 0.380952 0
0.689655 0.428571 0
0.689655 0.47619 0
0.689655 0.52381 0
0.689655 0.571429 0
0.689655 0.619048 0
0.689655 0.666667 0
0.689655 0.714286 0
0.689655 0.761905 0
0.689655 0.809524 0
0.689655 0.857143 0
0.689655 0.904762 0
0.689655 0.952381 0
0.689655 1 0
0.735632 0 0
0.735632 0.047619 0
0.735632 0.0952381 0
0.735632 0.142857 0
0.735632 0.190476 0
0.735632 0.238095 0
0.735632 0.285714 0
0.735632 0.333333 0
0.735632 0.380952 0
0.735632 0.428571 0
0.735632 0.47619 0
0.735632 0.52381 0
0.735632 0.571429 0
0.735632 0.619048 0
0.735632 0.666667 0
0.735632 0.714286 0
0.735632 0.761905 0
0.735632 0.809524 0
0.735632 0.857143 0
0.735632 0.904762 0
0.735632 0.952381 0
0.735632 1 0
0.781609 0 0
0.781609 0.047619 0
0.781609 0.0952381 0
0.781609 0.142857 0
0.781609 0.190476 0
0.781609 0.238095 0
0.781609 0.285714 0
0.781609 0.333333 0
0.781609 0.380952 0
0.781609 0.428571 0
0.781609 0.47619 0
0.781609 0.52381 0
0.781609 0.571429 0
0.781609 0.619048 0
0.781609 0.666667 0
0.781609 0.714286 0
0.781609 0.761905 0
0.781609 0.809524 0
0.781609 0.857143 0
0.781609 0.904762 0
0.781609 0.952381 0
0.781609 1 0
0.827586 0 0
0.827586 0.047619 0
0.827586 0.0952381 0
0.827586 0.142857 0
0.827586 0.190476 0
0.827586 0.238095 0
0.827586 0.285714 0
0.827586 0.333333 0
0.827586 0.380952 0
0.827586 0.428571 0
0.827586 0.47619 0
0.827586 0.52381 0
0.827586 0.571429 0
0.827586 0.619048 0
0.827586 0.666667 0
0.827586 0.714286 0
0.827586 0.761905 0
0.827586 0.809524 0
0.827586 0.857143 0
0.827586 0.904762 0
0.827586 0.952381 0
0.827586 1 0
0.873563 0 0
0.873563 0.047619 0
0.873563 0.0952381 0
0.873563 0.142857 0
0.873563 0.190476 0
0.873563 0.238095 0
0.873563 0.285714 0
0.873563 0.333333 0
0.873563 0.380952 0
0.873563 0.428571 0
0.873563 0.47619 0
0.873563 0.52381 0
0.873563 0.571429 0
0.873563 0.619048 0
0.873563 0.666667 0
0.873563 0.714286 0
0.873563 0.761905 0
0.873563 0.809524 0
0.873563 0.857143 0
0.873563 0.904762 0
0.873563 0.952381 0
0.873563 1 0
0.91954 0 0
0.91954 0.047619 0
0.91954 0.0952381 0
0.91954 0.142857 0
0.91954 0.190476 0
0.91954 0.238095 0
0.91954 0.285714 0
0.91954 0.333333 0
0.91954 0.380952 0
0.91954 0.428571 0
0.91954 0.47619 0
0.91954 0.52381 0
0.91954 0.571429 0
0.91954 0.619048 0
0.91954 0.666667 0
0.91954 0.714286 0
0.91954 0.761905 0
0.91954 0.809524 0
0.91954 0.857143 0
0.91954 0.904762 0
0.91954 0.952381 0
0.91954 1 0
0.965517 0 0
0.965517 0.047619 0
0.965517 0.0952381 0
0.965517 0.142857 0
0.965517 0.190476 0
0.965517 0.238095 0
0.965517 0.285714 0
0.965517 0.333333 0
0.965517 0.380952 0
0.965517 0.428571 0
0.965517 0.47619 0
0.965517 0.52381 0
0.965517 0.571429 0
0.965517 0.619048 0
0.965517 0.666667 0
0.965517 0.714286 0
0.965517 0.761905 0
0.965517 0.809524 0
0.965517 0.857143 0
0.965517 0.904762 0
0.965517 0.952381 0
0.965517 1 0
1.01149 0 0
1.01149 0.047619 0
1.01149 0.0952381 0
1.01149 0.142857 0
1.01149 0.190476 0
1.01149 0.238095 0
1.01149 0.285714 0
1.01149 0.333333 0
1.01149 0.380952 0
1.01149 0.428571 0
1.01149 0.47619 0
1.01149 0.52381 0
1.01149 0.571429 0
1.01149 0.619048 0
1.01149 0.666667 0
1.01149 0.714286 0
1.01149 0.761905 0
1.01149 0.809524 0
1.01149 0.857143 0
1.01149 0.904762 0
1.01149 0.952381 0
1.01149 1 0
1.05747 0 0
1.05747 0.047619 0
1.05747 0.0952381 0
1.05747 0.142857 0
1.05747 0.190476 0
1.05747 0.238095 0
1.05747 0.285714 0
1.05747 0.333333 0
1.05747 0.380952 0
1.05747 0.428571 0
1.05747 0.47619 0
1.05747 0.52381 0
1.05747 0.571429 0
1.05747 0.619048 0
1.05747 0.666667 0
1.05747 0.714286 0
1.05747 0.761905 0
1.05747 0.809524 0
1.05747 0.857143 0
1.05747 0.904762 0
1.05747 0.952381 0
1.05747 1 0
1.10345 0 0
1.10345 0.047619 0
1.10345 0.0952381 0
1.10345 0.142857 0
1.10345 0.190476 0
1.10345 0.238095 0
1.10345 0.285714 0
1.10345 0.333333 0
1.10345 0.380952 0
1.10345 0.428571 0
1.10345 0.47619 0
1.10345 0.52381 0
1.10345 0.571429 0
[...]
POINT_DATA 1913
VECTORS velocity[m/s] double
-0 0.209455 0
0 0.209455 0
0 0.209377 0
0 0.18096 0
0 0.150624 0
0 0.121862 0
0 0.0948373 0
0 0.0692118 0
0 0.0445676 0
0 0.0204903 0
0 -0.00342 0
0 -0.027564 0
0 -0.0523697 0
0 -0.0783286 0
0 -0.106043 0
0 -0.136289 0
0 -0.170113 0
0 -0.208939 0
0 -0.254269 0
0 -0.302744 0
0 -0.309894 0
-0.872557 0.185232 0
0.872557 0.00163375 0
1.07486 0.185232 0
1.10223 0.208816 0
1.10408 0.184415 0
1.10256 0.153009 0
1.10088 0.123213 0
1.09953 0.0956331 0
1.09858 0.0696972 0
1.09804 0.0448424 0
1.09787 0.0205957 0
1.0981 -0.00346711 0
1.09874 -0.0277587 0
1.09985 -0.0527162 0
1.10155 -0.0788418 0
1.10399 -0.106761 0
1.10745 -0.137314 0
1.11227 -0.171685 0
1.11856 -0.211263 0
1.12159 -0.255082 0
1.08169 -0.286329 0
0.77558 -0.23525 0
-0.695289 0.144678 0
0.69529 0.0012961 0
1.05209 0.144678 0
1.12579 0.189898 0
1.1344 0.178655 0
1.13133 0.1512 0
1.12751 0.122246 0
1.12457 0.0949224 0
1.12258 0.0691982 0
1.12145 0.0445607 0
1.12111 0.0205325 0
1.12155 -0.00330356 0
1.12284 -0.0273423 0
1.12508 -0.0519946 0
1.1285 -0.0777276 0
1.13349 -0.105117 0
1.14063 -0.134903 0
1.15049 -0.167883 0
1.16086 -0.203707 0
1.15176 -0.235369 0
1.03237 -0.234793 0
0.548442 -0.146341 0
-0.556852 0.105545 0
0.556852 0.000944872 0
1.00843 0.105545 0
1.13664 0.161747 0
1.16091 0.16468 0
1.15928 0.144582 0
1.15389 0.118615 0
1.14941 0.0926241 0
1.14637 0.0677243 0
1.14465 0.0437431 0
1.14412 0.0203061 0
1.14476 -0.00294957 0
1.14664 -0.0263682 0
1.14992 -0.0503017 0
1.15495 -0.075138 0
1.16225 -0.101323 0
1.17247 -0.129305 0
1.18508 -0.159012 0
1.19143 -0.187593 0
1.15121 -0.203125 0
0.946971 -0.176841 0
0.407148 -0.0836986 0
-0.455858 0.0738517 0
0.455858 0.000660517 0
0.954168 0.0738517 0
1.13381 0.132238 0
1.18031 0.146252 0
1.18436 0.134287 0
1.17899 0.112639 0
1.17345 0.0888894 0
1.16952 0.0653751 0
1.16727 0.0424466 0
1.16658 0.0199294 0
1.16737 -0.00243936 0
1.16975 -0.0249265 0
1.1739 -0.0478007 0
1.18023 -0.0713402 0
1.18927 -0.0958063 0
1.20116 -0.121234 0
1.21267 -0.146522 0
1.20643 -0.166698 0
1.12583 -0.167943 0
0.85704 -0.1281 0
0.326335 -0.0478509 0
-0.385191 0.0504911 0
0.385191 0.000451219 0
0.897796 0.0504911 0
1.12028 0.105561 0
1.19187 0.1267 0
1.20526 0.121991 0
1.20192 0.105058 0
1.19615 0.0840809 0
1.19166 0.0623521 0
1.18902 0.0407766 0
1.18817 0.0194329 0
1.18909 -0.00181304 0
1.19183 -0.0231346 0
1.19663 -0.0447064 0
1.20385 -0.0666847 0
1.21382 -0.0891238 0
1.22557 -0.111621 0
1.23215 -0.132161 0
1.20763 -0.144505 0
1.08736 -0.135534 0
0.779558 -0.0918635 0
0.280134 -0.0286844 0
-0.336877 0.0343592 0
0.336877 0.000306834 0
0.844625 0.0343592 0
1.09987 0.0833295 0
1.19641 0.108153 0
1.22161 0.109157 0
1.22217 0.0966816 0
1.21713 0.0786387 0
1.21249 0.0589044 0
1.20962 0.0388646 0
1.20869 0.0188582 0
1.20967 -0.00111042 0
1.21266 -0.0211181 0
1.21785 -0.0412467 0
1.22552 -0.0615338 0
1.23554 -0.0818324 0
1.24541 -0.101343 0
1.24407 -0.117382 0
1.19897 -0.123292 0
1.0452 -0.108138 0
0.718558 -0.0663255 0
0.252439 -0.018329 0
-0.303998 0.0237107 0
0.303998 0.000211593 0
0.797343 0.0237107 0
1.0759 0.0656897 0
1.19544 0.0916692 0
1.23365 0.0967897 0
1.23959 0.0881804 0
1.23619 0.0729699 0
1.23184 0.055274 0
1.22894 0.0368422 0
1.22797 0.0182492 0
1.22899 -0.000367121 0
1.23209 -0.0189941 0
1.23744 -0.0376306 0
1.24512 -0.0562078 0
1.25438 -0.0743996 0
1.26089 -0.0910837 0
1.24978 -0.10317 0
1.18434 -0.104227 0
1.00482 -0.0860263 0
0.672217 -0.0486388 0
0.234742 -0.0124301 0
-0.28131 0.0168561 0
0.28131 0.000150319 0
0.756812 0.0168561 0
1.05082 0.0520969 0
1.1905 0.0775912 0
1.24196 0.085455 0
1.25428 0.0800206 0
1.25327 0.0673903 0
1.24964 0.0516603 0
1.24689 0.0348213 0
1.24594 0.0176447 0
1.24698 0.000387181 0
1.25009 -0.0168609 0
1.25537 -0.0340288 0
1.26268 -0.0509577 0
1.27049 -0.0671703 0
1.27256 -0.0813027 0
1.2508 -0.0900913 0
1.16677 -0.0877277 0
0.968726 -0.0686104 0
0.637256 -0.0363667 0
0.222741 -0.00884178 0
-0.26518 0.0124625 0
0.26518 0.000111063 0
0.722786 0.0124625 0
1.0262 0.0417822 0
1.18291 0.0658533 0
1.24721 0.0753935 0
1.26647 0.0724747 0
1.26846 0.062111 0
1.2659 0.048206 0
1.26348 0.0328849 0
1.2626 0.0170734 0
1.26363 0.00112903 0
1.26666 -0.0147933 0
1.27172 -0.0305671 0
1.27834 -0.0459597 0
1.28413 -0.0603704 0
1.28105 -0.072271 0
1.24852 -0.0784041 0
1.14831 -0.0737821 0
0.937594 -0.0550574 0
0.610681 -0.0277519 0
0.214204 -0.00652818 0
-0.253255 0.00960264 0
0.253255 8.55263e-05 0
0.694478 0.00960264 0
1.00296 0.0339949 0
1.1737 0.0561999 0
1.25003 0.0666411 0
1.27648 0.0656678 0
1.28189 0.057251 0
1.28069 0.0449985 0
1.27874 0.0310858 0
1.278 0.0165529 0
1.279 0.00184067 0
1.28189 -0.0128434 0
1.28658 -0.027329 0
1.29225 -0.0413229 0
1.29562 -0.0541275 0
1.28697 -0.0641165 0
1.24405 -0.0681667 0
1.13023 -0.0621695 0
0.91123 -0.0445587 0
0.590189 -0.0216093 0
0.207901 -0.00496956 0
-0.244066 0.007684 0
0.244066 6.84043e-05 0
0.670926 0.007684 0
0.981521 0.028102 0
1.16362 0.0483141 0
1.25097 0.0591204 0
1.28461 0.0596257 0
1.29372 0.0528594 0
1.29412 0.04208 0
1.29277 0.0294506 0
1.2922 0.0160907 0
1.29318 0.00250926 0
1.29588 -0.0110434 0
1.30009 -0.0243618 0
1.30461 -0.0371033 0
1.30527 -0.0484959 0
1.29088 -0.0568708 0
1.23826 -0.0593215 0
1.11323 -0.052588 0
0.889072 -0.0364267 0
0.574123 -0.0171573 0
0.203103 -0.00388622 0
-0.236713 0.00634708 0
0.236713 5.64808e-05 0
0.651213 0.00634708 0
0.962006 0.0236092 0
1.15318 0.0418848 0
1.25048 0.0527017 0
1.29114 0.0543156 0
1.30412 0.0489381 0
1.30632 0.0394598 0
1.30567 0.0279856 0
1.30532 0.0156864 0
1.30627 0.00312603 0
1.30874 -0.00940938 0
1.3124 -0.0216852 0
1.31561 -0.0333177 0
1.31335 -0.0434803 0
1.29324 -0.0505051 0
1.23176 -0.0517502 0
1.09762 -0.0447244 0
0.870468 -0.030111 0
0.56131 -0.0138802 0
0.199351 -0.00311591 0
-0.230639 0.00537898 0
0.230639 4.78514e-05 0
0.634546 0.00537898 0
0.944361 0.020147 0
1.14274 0.0366355 0
1.24892 0.0472393 0
1.29633 0.0496738 0
1.31328 0.0454608 0
1.31739 0.0371254 0
1.31755 0.0266838 0
1.31744 0.0153345 0
1.31837 0.00368549 0
1.32059 -0.00794598 0
1.32363 -0.0192996 0
1.32542 -0.0299569 0
1.32013 -0.0390538 0
1.29445 -0.0449566 0
1.22498 -0.0453094 0
1.08351 -0.0382873 0
0.854796 -0.0251844 0
0.550917 -0.0114337 0
0.196342 -0.00255841 0
-0.225492 0.00465336 0
0.225492 4.13863e-05 0
0.620287 0.00465336 0
0.928441 0.0174453 0
1.1325 0.0323334 0
1.24657 0.0425909 0
1.3004 0.0456241 0
1.32132 0.0423859 0
1.32748 0.0350524 0
1.32851 0.0255299 0
1.32869 0.0150264 0
1.3296 0.00418481 0
1.33155 -0.00664954 0
1.33392 -0.0171924 0
1.33421 -0.0269955 0
1.32583 -0.0351715 0
1.29479 -0.0401458 0
1.2182 -0.039851 0
1.07086 -0.0330208 0
0.84152 -0.0213203 0
0.542347 -0.00958375 0
0.193872 -0.00214894 0
-0.221039 0.00409341 0
0.221039 3.63991e-05 0
0.607936 0.00409341 0
0.914066 0.0153084 0
1.1226 0.028788 0
1.24364 0.0386272 0
1.30353 0.0420891 0
1.3284 0.0396664 0
1.33667 0.0332104 0
1.33865 0.0245051 0
1.33916 0.0147525 0
1.34006 0.00462325 0
1.34173 -0.00551119 0
1.34338 -0.0153435 0
1.3421 -0.0243994 0
1.33064 -0.0317803 0
1.2945 -0.0359884 0
1.2116 -0.0352344 0
1.05956 -0.0287078 0
0.830188 -0.0182707 0
0.535169 -0.00816851 0
0.191797 -0.00184417 0
-0.217122 0.00365062 0
0.217122 3.24565e-05 0
0.597108 0.00365062 0
0.901051 0.0135944 0
1.1131 0.0258459 0
1.2403 0.035235 0
1.30586 0.0389956 0
1.33464 0.037255 0
1.34508 0.0315678 0
1.34806 0.0235893 0
1.34894 0.0145032 0
1.34984 0.00500171 0
1.35123 -0.00451903 0
1.35213 -0.0137287 0
1.34923 -0.0221305 0
1.3347 -0.0288246 0
1.29377 -0.0324014 0
1.2053 -0.0313312 0
1.04949 -0.0251675 0
0.820434 -0.0158475 0
0.529063 -0.00707376 0
0.190017 -0.00161445 0
-0.213629 0.00329301 0
0.213629 2.92732e-05 0
0.587507 0.003293 0
0.889222 0.0122002 0
1.10403 0.0233852 0
1.23667 0.0323175 0
1.30755 0.0362778 0
1.34013 0.0351075 0
1.35278 0.0300947 0
1.35684 0.0227633 0
1.35811 0.0142699 0
1.35904 0.0053223 0
1.36012 -0.00365972 0
1.36024 -0.0123229 0
1.35569 -0.0201507 0
1.33815 -0.0262506 0
1.29274 -0.0293074 0
1.19935 -0.0280287 0
1.04049 -0.0222517 0
0.811963 -0.0139081 0
0.523792 -0.00621771 0
0.188458 -0.00143904 0
-0.210477 0.00299867 0
0.210477 2.66537e-05 0
0.578907 0.00299867 0
0.878423 0.0110501 0
1.09541 0.0213093 0
1.23285 0.0297936 0
1.30868 0.0338779 0
1.34497 0.0331844 0
1.35986 0.0287639 0
1.36504 0.0220102 0
1.36675 0.0140454 0
1.36771 0.00558804 0
1.36848 -0.00291949 0
1.3678 -0.0111012 0
1.36158 -0.0184236 0
1.3411 -0.0240081 0
1.29151 -0.0266365 0
1.19377 -0.0252291 0
1.03243 -0.0198401 0
0.804538 -0.0123437 0
0.519178 -0.00554093 0
0.187068 -0.00130326 0
-0.207608 0.00275217 0
0.207608 2.44604e-05 0
0.571133 0.00275217 0
0.868518 0.0100883 0
1.08721 0.0195419 0
1.2289 0.027596 0
1.30935 0.0317467 0
1.34924 0.0314512 0
1.36638 0.0275516 0
1.37273 0.0213152 0
1.37492 0.0138238 0
1.37592 0.00580256 0
1.37638 -0.00228491 0
1.37487 -0.0100402 0
1.36697 -0.0169155 0
1.34364 -0.0220515 0
1.29015 -0.0243267 0
1.18857 -0.022849 0
1.02519 -0.0178352 0
0.79797 -0.0110712 0
0.515086 -0.00499972 0
0.18581 -0.00119656 0
-0.204974 0.00254237 0
0.204974 2.25939e-05 0
0.56405 0.00254236 0
0.85939 0.00927306 0
1.07944 0.0180229 0
1.2249 0.025669 0
1.30963 0.0298424 0
1.353 0.0298788 0
1.3724 0.026438 0
1.37996 0.0206661 0
1.38266 0.0136008 0
1.38373 0.00596987 0
1.38387 -0.00174328 0
1.3815 -0.00911847 0
1.37193 -0.0155963 0
1.34584 -0.0203405 0
1.28872 -0.022324 0
1.18373 -0.0208182 0
1.01866 -0.0161588 0
0.792108 -0.0100269 0
0.511414 -0.00456171 0
0.184655 -0.00111129 0
-0.202541 0.00236112 0
0.202542 2.09817e-05 0
0.557552 0.00236111 0
0.850942 0.0085732 0
1.07206 0.0167049 0
1.22087 0.0239672 0
1.3096 0.02813 0
1.35632 0.0284425 0
1.37797 0.0254064 0
1.38678 0.020053 0
1.39003 0.0133733 0
1.39118 0.00609419 0
1.39099 -0.00128286 0
1.38776 -0.00831691 0
1.37651 -0.0144392 0
1.34775 -0.0188399 0
1.28727 -0.0205818 0
1.17923 -0.019078 0
1.01274 -0.0147477 0
0.786831 -0.0091619 0
0.508083 -0.00420268 0
0.183582 -0.00104191 0
-0.200282 0.00220241 0
0.200282 1.95701e-05 0
0.551554 0.0022024 0
0.843091 0.0079651 0
1.06504 0.0155506 0
1.21685 0.0224533 0
1.30929 0.0265805 0
1.35926 0.0271219 0
1.38314 0.0244433 0
1.39323 0.0194682 0
1.39706 0.0131395 0
1.3983 0.00617978 0
1.39778 -0.000892997 0
1.39367 -0.00761852 0
1.38076 -0.0134211 0
1.34944 -0.017519 0
1.28582 -0.0190604 0
1.17505 -0.0175792 0
1.00735 -0.0135517 0
0.782043 -0.00843816 0
0.505031 -0.00390445 0
0.182576 -0.000984321 0
-0.198175 0.00206176 0
0.198175 1.83194e-05 0
0.54599 0.00206175 0
0.835767 0.00743084 0
1.05838 0.0145305 0
1.21286 0.0210972 0
1.30877 0.0251698 0
1.36184 0.0259004 0
1.38794 0.0235379 0
1.39934 0.018906 0
1.40378 0.0128983 0
1.40513 0.00623083 0
1.40428 -0.000564144 0
1.39927 -0.0070085 0
1.38472 -0.0125217 0
1.35092 -0.0163517 0
1.28439 -0.017726 0
1.17116 -0.0162813 0
1.00241 -0.0125302 0
0.777665 -0.00782636 0
0.502212 -0.00365326 0
0.181626 -0.000935551 0
-0.196202 0.0019358 0
0.196202 1.71995e-05 0
0.540806 0.00193579 0
0.828912 0.00695666 0
1.05204 0.0136216 0
1.20893 0.0198742 0
1.30807 0.0238782 0
1.36412 0.0247642 0
1.39242 0.0226817 0
1.40514 0.0183619 0
1.41021 0.0126495 0
1.41169 0.00625142 0
1.4105 -0.000287801 0
1.4046 -0.00647397 0
1.38842 -0.0117239 0
1.35225 -0.0153156 0
1.28299 -0.0165499 0
1.16754 -0.0151506 0
0.997871 -0.0116509 0
0.773636 -0.00730366 0
0.499588 -0.0034387 0
0.180722 -0.000893402 0
-0.194349 0.001822 0
0.194349 1.61877e-05 0
0.535958 0.00182199 0
0.822477 0.00653201 0
1.046 0.0128053 0
1.20506 0.0187644 0
1.30721 0.0226894 0
1.36613 0.0237021 0
1.39659 0.0218679 0
1.41066 0.0178328 0
1.41639 0.0123934 0
1.41801 0.00624542 0
1.41647 -5.64695e-05 0
1.40966 -0.00600387 0
1.39188 -0.0110128 0
1.35344 -0.0143914 0
1.28164 -0.0155082 0
1.16416 -0.0141596 0
0.993674 -0.0108877 0
0.769905 -0.00685227 0
0.49713 -0.00325286 0
0.17986 -0.000856257 0
-0.192606 0.00171841 0
0.192606 1.52668e-05 0
0.531411 0.0017184 0
0.81642 0.00614869 0
1.04025 0.0120671 0
1.20127 0.0177515 0
1.30623 0.0215901 0
1.3679 0.0227052 0
1.40048 0.0210914 0
1.41591 0.0173167 0
1.42233 0.0121308 0
1.42409 0.00621645 0
1.42221 0.000136438 0
1.4145 -0.00558867 0
1.39515 -0.0103758 0
1.35452 -0.0135631 0
1.28034 -0.0145805 0
1.161 -0.0132853 0
0.989778 -0.0102197 0
0.766429 -0.00645824 0
0.494816 -0.00308966 0
0.179033 -0.000822929 0
-0.190961 0.00162353 0
0.190962 1.44234e-05 0
0.527133 0.00162352 0
0.810706 0.00580029 0
1.03476 0.0113953 0
1.19757 0.0168222 0
1.30516 0.0205691 0
1.36946 0.0217662 0
1.40413 0.0203481 0
1.42092 0.0168123 0
1.42804 0.0118627 0
1.42996 0.0061679 0
1.42774 0.000296682 0
1.41912 -0.00522024 0
1.39822 -0.00980224 0
1.3555 -0.012817 0
1.27909 -0.0137498 0
1.15804 -0.0125088 0
0.986146 -0.00963026 0
0.763177 -0.00611067 0
0.492628 -0.0029445 0
0.178239 -0.000792543 0
-0.189408 0.00153619 0
0.189408 1.36471e-05 0
0.523101 0.00153618 0
0.805304 0.00548177 0
1.02952 0.0107806 0
1.19395 0.0159658 0
1.304 0.0196176 0
1.37083 0.020879 0
1.40754 0.0196349 0
1.4257 0.0163186 0
1.43354 0.0115903 0
1.43563 0.00610287 0
1.43307 0.000429285 0
1.42355 -0.00489161 0
1.40113 -0.00928309 0
1.3564 -0.0121413 0
1.27789 -0.0130018 0
1.15526 -0.0118147 0
0.982748 -0.00910573 0
0.76012 -0.00580096 0
0.49055 -0.0028138 0
0.177473 -0.000764457 0
-0.187938 0.00145547 0
0.187938 1.29296e-05 0
0.519291 0.00145545 0
0.800187 0.00518912 0
1.02451 0.0102154 0
1.19042 0.0151734 0
1.30278 0.0187279 0
1.37203 0.0200388 0
1.41074 0.0189496 0
1.43026 0.0158356 0
1.43884 0.0113148 0
1.44111 0.00602421 0
1.43821 0.000538616 0
1.42779 -0.00459684 0
1.40389 -0.0088106 0
1.35724 -0.0115262 0
1.27674 -0.0123246 0
1.15265 -0.0111901 0
0.979557 -0.00863524 0
0.757236 -0.00552231 0
0.488571 -0.00269483 0
0.176735 -0.000738196 0
-0.186545 0.00138061 0
0.186545 1.22643e-05 0
0.515686 0.00138059 0
0.795335 0.0049191 0
1.01973 0.00969354 0
1.18699 0.0144376 0
1.30152 0.0178938 0
1.37309 0.0192415 0
1.41375 0.0182903 0
1.43463 0.0153629 0
1.44394 0.0110377 0
1.4464 0.00593447 0
1.44316 0.000628467 0
1.43185 -0.00433087 0
1.40652 -0.00837823 0
1.35801 -0.0109635 0
1.27565 -0.011708 0
1.15018 -0.0106244 0
0.976552 -0.00820994 0
0.754506 -0.00526936 0
0.486682 -0.00258546 0
0.176023 -0.000713412 0
-0.185224 0.00131101 0
0.185224 1.16458e-05 0
0.51227 0.00131099 0
0.790725 0.00466911 0
1.01515 0.00921009 0
1.18366 0.0137523 0
1.30022 0.01711 0
1.374 0.018484 0
1.41658 0.0176556 0
1.4388 0.0149009 0
1.44887 0.0107602 0
1.45153 0.00583599 0
1.44795 0.000702123 0
1.43576 -0.00408938 0
1.40901 -0.00798043 0
1.35873 -0.0104459 0
1.2746 -0.0111436 0
1.14785 -0.0101089 0
0.973712 -0.00782267 0
0.751915 -0.00503781 0
0.484875 -0.00248405 0
0.175334 -0.000689845 0
-0.183969 0.00124616 0
0.18397 1.10695e-05 0
0.509027 0.00124615 0
0.78634 0.00443698 0
1.01076 0.00876085 0
1.18041 0.0131125 0
1.29889 0.0163723 0
1.3748 0.0177633 0
1.41924 0.0170446 0
1.4428 0.0144498 0
1.45363 0.0104837 0
1.45648 0.00573083 0
1.45258 0.000762427 0
1.43952 -0.00386869 0
1.41139 -0.00761246 0
1.3594 -0.00996756 0
1.2736 -0.0106242 0
1.14564 -0.00963625 0
0.971024 -0.00746758 0
0.749449 -0.00482425 0
0.483143 -0.0023893 0
0.174668 -0.000667305 0
-0.182777 0.00118564 0
0.182777 1.05317e-05 0
0.505947 0.00118563 0
0.782166 0.00422091 0
1.00656 0.00834235 0
1.17727 0.0125137 0
1.29755 0.0156766 0
1.3755 0.0170772 0
1.42174 0.0164562 0
1.44663 0.0140099 0
1.45821 0.0102091 0
1.46128 0.00562082 0
1.45705 0.000811831 0
1.44313 -0.00366565 0
1.41367 -0.00727028 0
1.36003 -0.00952328 0
1.27265 -0.0101438 0
1.14355 -0.00920037 0
0.968471 -0.00713988 0
0.747098 -0.00462592 0
0.48148 -0.00230019 0
0.174024 -0.000645648 0
-0.181643 0.00112908 0
0.181643 1.00291e-05 0
0.503016 0.00112907 0
0.778186 0.00401938 0
1.00253 0.00795165 0
1.17421 0.0119525 0
1.29619 0.0150199 0
1.3761 0.0164235 0
1.4241 0.0158899 0
1.4503 0.0135815 0
1.46264 0.00993776 0
1.46592 0.0055076 0
1.46137 0.000852453 0
1.44661 -0.00347757 0
1.41584 -0.00695047 0
1.36063 -0.00910871 0
1.27174 -0.00969724 0
1.14156 -0.00879623 0
0.966044 -0.00683564 0
0.744853 -0.00444061 0
0.479883 -0.00221593 0
0.1734 -0.000624766 0
-0.180562 0.00107616 0
0.180562 9.55885e-06 0
0.500225 0.00107614 0
0.77439 0.00383111 0
0.998669 0.00758624 0
1.17125 0.0114255 0
1.29484 0.0143993 0
1.37661 0.0158006 0
1.42633 0.015345 0
1.45382 0.013165 0
1.46692 0.00967051 0
1.47042 0.00539258 0
1.46555 0.000886111 0
1.44997 -0.00330218 0
1.41793 -0.00665007 0
1.3612 -0.00872013 0
1.27087 -0.00928021 0
1.13967 -0.00841959 0
0.963732 -0.00655164 0
0.742705 -0.00426649 0
0.478346 -0.00213587 0
0.172797 -0.000604575 0
-0.179532 0.00102659 0
0.179533 9.11841e-06 0
0.497566 0.00102658 0
0.770764 0.00365495 0
0.994963 0.00724396 0
1.16838 0.01093 0
1.29349 0.0138123 0
1.37705 0.0152067 0
1.42844 0.014821 0
1.45719 0.0127607 0
1.47105 0.00940824 0
1.47477 0.005277 0
1.4696 0.000914366 0
1.4532 -0.00313751 0
1.41992 -0.00636657 0
1.36174 -0.00835433 0
1.27004 -0.00888903 0
1.13786 -0.00806689 0
0.961525 -0.00628517 0
0.740647 -0.00410211 0
0.476868 -0.00205949 0
0.172213 -0.000585011 0
-0.17855 0.000980126 0
0.17855 8.70553e-06 0
0.495028 0.000980109 0
0.767299 0.00348992 0
0.991404 0.0069229 0
1.1656 0.0104637 0
1.29214 0.0132566 0
1.37742 0.0146405 0
1.43043 0.0143173 0
1.46043 0.0123688 0
1.47504 0.00915169 0
1.47898 0.00516193 0
1.47351 0.000938554 0
1.45632 -0.00298189 0
1.42184 -0.00609782 0
1.36226 -0.00800857 0
1.26924 -0.00852055 0
1.13614 -0.00773514 0
0.959418 -0.00603401 0
0.738675 -0.00394623 0
0.475444 -0.00198636 0
0.171649 -0.000566024 0
-0.177612 0.000936531 0
0.177612 8.31819e-06 0
0.492605 0.000936513 0
0.763984 0.00333516 0
0.987985 0.00662141 0
1.1629 0.0100243 0
1.2908 0.0127304 0
1.37774 0.0141006 0
1.43231 0.0138334 0
1.46353 0.0119895 0
1.47889 0.00890149 0
1.48306 0.00504828 0
1.4773 0.000959813 0
1.45933 -0.00283389 0
1.42369 -0.00584196 0
1.36275 -0.00768051 0
1.26848 -0.00817209 0
1.1345 -0.0074218 0
0.957402 -0.00579629 0
0.736783 -0.00379786 0
0.474073 -0.00191615 0
0.171102 -0.000547571 0
-0.176716 0.000895599 0
0.176716 7.9545e-06 0
0.490289 0.00089558 0
0.760812 0.00318986 0
0.984699 0.006338 0
1.16029 0.00961002 0
1.28948 0.0122317 0
1.37799 0.0135859 0
1.43409 0.0133689 0
1.46652 0.0116229 0
1.48261 0.00865818 0
1.48701 0.00493683 0
1.48096 0.000979106 0
1.46223 -0.00269229 0
1.42546 -0.0055974 0
1.36323 -0.00736811 0
1.26776 -0.00784135 0
1.13293 -0.0071247 0
0.955473 -0.00557042 0
0.734966 -0.00365613 0
0.472752 -0.00184856 0
0.170573 -0.000529617 0
-0.175859 0.000857137 0
0.175859 7.61277e-06 0
0.488074 0.000857118 0
0.757772 0.00305333 0
0.98154 0.00607131 0
1.15776 0.00921901 0
1.28817 0.0117589 0
1.3782 0.013095 0
1.43577 0.0129232 0
1.46938 0.011269 0
1.48621 0.00842217 0
1.49083 0.00482821 0
1.4845 0.000997245 0
1.46504 -0.00255607 0
1.42717 -0.00536276 0
1.36368 -0.0070696 0
1.26707 -0.00752635 0
1.13143 -0.006842 0
0.953624 -0.00535507 0
0.733221 -0.00352035 0
0.471478 -0.00178335 0
0.170062 -0.000512133 0
-0.175039 0.000820966 0
0.175039 7.29141e-06 0
0.485953 0.000820946 0
0.754858 0.00292491 0
0.978501 0.00582014 0
1.1553 0.00884971 0
1.28688 0.0113104 0
1.37837 0.012627 0
1.43737 0.0124957 0
1.47213 0.0109279 0
1.48968 0.00819378 0
1.49453 0.00472295 0
1.48793 0.00101491 0
1.46775 -0.00242432 0
1.42882 -0.00513685 0
1.36412 -0.00678348 0
1.26641 -0.00722536 0
1.12999 -0.00657213 0
0.951853 -0.00514909 0
0.731544 -0.00338991 0
0.470251 -0.0017203 0
0.169568 -0.00049509 0
-0.174253 0.000786921 0
0.174254 6.98894e-06 0
0.483922 0.000786901 0
0.752063 0.00280401 0
0.975576 0.00558336 0
1.15293 0.00850066 0
1.28561 0.0108849 0
1.3785 0.0121806 0
1.43889 0.012086 0
1.47477 0.0105995 0
1.49303 0.00797324 0
1.49811 0.00462147 0
1.49126 0.00103267 0
1.47037 -0.00229631 0
1.43041 -0.00491866 0
1.36455 -0.00650841 0
1.26578 -0.0069369 0
1.12862 -0.0063137 0
0.950154 -0.00495151 0
0.729932 -0.00326427 0
0.469068 -0.00165922 0
0.16909 -0.000478462 0
-0.1735 0.000754845 0
0.173501 6.70396e-06 0
0.481974 0.000754824 0
0.749379 0.00269008 0
0.972759 0.00535994 0
1.15063 0.00817048 0
1.28436 0.0104809 0
1.37859 0.011755 0
1.44032 0.0116934 0